G1FFOH
   17
    1G1FFO Head    1   2.252   1.756   0.658
    1G1FFO Head    2   1.922   1.844   0.775
    1G1FFO Head    3   1.900   1.470   0.355
    1G1FFO Head    4   1.737   1.515   0.589
    1G1FFO link    5   1.669   1.672   0.849
    1G1FFO link    6   1.419   1.635   0.970
    1G1FFO Tail    7   1.246   1.620   1.253
    1G1FFO Tail    8   1.366   1.640   1.573
    1G1FFO Tail    9   1.426   1.625   1.843
    1G1FFO Tail   10   1.511   1.619   2.094
    1G1FFO Tail   11   1.602   1.618   2.338
    1G1FFO Tail   12   1.691   1.559   2.547
    1G1FFO Tail   13   1.130   1.273   1.420
    1G1FFO Tail   14   1.138   1.213   1.683
    1G1FFO Tail   15   1.146   1.166   1.935
    1G1FFO Tail   16   1.159   1.126   2.193
    1G1FFO Tail   17   1.187   1.156   2.422
   3.00000   3.00000   3.00000
