generated by VMD, t= 0.000000
3751
    1G1FFO Head    1   5.989   4.372  23.272
    1G1FFO Head    2   6.067   4.050  23.269
    1G1FFO Head    3   6.743   4.191  23.170
    1G1FFO Head    4   6.454   4.221  23.249
    1G1FFO link    5   6.320   4.011  23.353
    1G1FFO link    6   6.358   3.910  23.609
    1G1FFO Tail    7   6.624   3.707  23.637
    1G1FFO Tail    8   6.527   3.495  23.896
    1G1FFO Tail    9   6.720   3.367  24.000
    1G1FFO Tail   10   6.912   3.319  23.833
    1G1FFO Tail   11   7.121   3.258  23.700
    1G1FFO Tail   12   7.273   3.232  23.528
    1G1FFO Tail   13   6.826   3.917  23.843
    1G1FFO Tail   14   7.076   3.942  23.804
    1G1FFO Tail   15   7.154   4.107  23.624
    1G1FFO Tail   16   7.195   4.287  23.448
    1G1FFO Tail   17   7.249   4.386  23.249
    2G1FFO Head   18   9.165   2.888  22.045
    2G1FFO Head   19   8.935   2.811  22.225
    2G1FFO Head   20   8.806   2.856  21.632
    2G1FFO Head   21   8.778   2.649  21.868
    2G1FFO link   22   8.717   2.743  22.125
    2G1FFO link   23   8.460   2.714  22.260
    2G1FFO Tail   24   8.155   2.733  22.099
    2G1FFO Tail   25   8.007   2.948  22.318
    2G1FFO Tail   26   8.045   2.970  22.589
    2G1FFO Tail   27   8.255   2.881  22.710
    2G1FFO Tail   28   8.445   2.832  22.868
    2G1FFO Tail   29   8.603   2.820  23.037
    2G1FFO Tail   30   8.008   2.448  22.234
    2G1FFO Tail   31   8.103   2.259  22.398
    2G1FFO Tail   32   8.323   2.287  22.510
    2G1FFO Tail   33   8.539   2.326  22.643
    2G1FFO Tail   34   8.733   2.295  22.766
    3G1FFO Head   35   6.952   4.967  26.530
    3G1FFO Head   36   7.055   4.822  26.810
    3G1FFO Head   37   6.735   5.108  27.031
    3G1FFO Head   38   6.706   4.808  26.963
    3G1FFO link   39   6.888   4.661  26.938
    3G1FFO link   40   6.963   4.433  27.095
    3G1FFO Tail   41   7.226   4.433  27.291
    3G1FFO Tail   42   7.411   4.688  27.151
    3G1FFO Tail   43   7.616   4.639  27.002
    3G1FFO Tail   44   7.769   4.425  27.029
    3G1FFO Tail   45   7.913   4.220  27.084
    3G1FFO Tail   46   8.036   4.052  27.193
    3G1FFO Tail   47   7.379   4.140  27.172
    3G1FFO Tail   48   7.232   3.959  27.045
    3G1FFO Tail   49   7.317   3.843  26.827
    3G1FFO Tail   50   7.379   3.763  26.602
    3G1FFO Tail   51   7.491   3.723  26.394
    4G1FFO Head   52   5.597   3.136  22.559
    4G1FFO Head   53   5.808   3.206  22.741
    4G1FFO Head   54   5.785   2.699  22.553
    4G1FFO Head   55   5.845   2.804  22.849
    4G1FFO link   56   5.959   3.034  22.865
    4G1FFO link   57   6.143   3.079  23.073
    4G1FFO Tail   58   6.425   3.249  23.026
    4G1FFO Tail   59   6.598   2.976  22.932
    4G1FFO Tail   60   6.710   2.802  23.071
    4G1FFO Tail   61   6.800   2.596  22.951
    4G1FFO Tail   62   6.861   2.370  22.864
    4G1FFO Tail   63   6.889   2.182  22.728
    4G1FFO Tail   64   6.515   3.249  23.363
    4G1FFO Tail   65   6.765   3.186  23.410
    4G1FFO Tail   66   6.938   3.178  23.206
    4G1FFO Tail   67   7.088   3.124  23.005
    4G1FFO Tail   68   7.275   3.087  22.867
    5G1FFO Head   69   7.688   5.038  25.510
    5G1FFO Head   70   7.972   5.118  25.487
    5G1FFO Head   71   8.152   5.621  25.941
    5G1FFO Head   72   8.024   5.446  25.746
    5G1FFO link   73   8.097   5.216  25.706
    5G1FFO link   74   8.291   5.094  25.868
    5G1FFO Tail   75   8.615   5.068  25.824
    5G1FFO Tail   76   8.663   4.727  25.905
    5G1FFO Tail   77   8.620   4.545  25.722
    5G1FFO Tail   78   8.819   4.415  25.633
    5G1FFO Tail   79   9.045   4.309  25.569
    5G1FFO Tail   80   9.267   4.237  25.554
    5G1FFO Tail   81   8.736   5.242  26.103
    5G1FFO Tail   82   8.879   5.130  26.285
    5G1FFO Tail   83   8.973   4.890  26.233
    5G1FFO Tail   84   9.094   4.669  26.173
    5G1FFO Tail   85   9.151   4.445  26.134
    6G1FFO Head   86  10.546   1.527  27.912
    6G1FFO Head   87  10.497   1.666  27.660
    6G1FFO Head   88  10.989   1.357  27.669
    6G1FFO Head   89  10.766   1.420  27.483
    6G1FFO link   90  10.676   1.659  27.485
    6G1FFO link   91  10.781   1.865  27.316
    6G1FFO Tail   92  10.761   1.874  26.982
    6G1FFO Tail   93  10.454   2.038  26.952
    6G1FFO Tail   94  10.228   1.892  26.923
    6G1FFO Tail   95  10.035   1.936  27.094
    6G1FFO Tail   96   9.866   2.025  27.254
    6G1FFO Tail   97   9.743   2.161  27.407
    6G1FFO Tail   98  10.627   1.565  26.932
    6G1FFO Tail   99  10.530   1.408  27.120
    6G1FFO Tail  100  10.350   1.518  27.268
    6G1FFO Tail  101  10.146   1.605  27.392
    6G1FFO Tail  102   9.933   1.635  27.496
    7G1FFO Head  103   9.365   2.248  24.108
    7G1FFO Head  104   9.259   2.033  23.934
    7G1FFO Head  105   8.676   2.112  24.069
    7G1FFO Head  106   8.862   1.983  23.844
    7G1FFO link  107   9.085   2.081  23.771
    7G1FFO link  108   9.151   2.194  23.517
    7G1FFO Tail  109   9.132   2.025  23.234
    7G1FFO Tail  110   9.278   2.250  23.006
    7G1FFO Tail  111   9.225   2.503  23.038
    7G1FFO Tail  112   9.087   2.636  22.866
    7G1FFO Tail  113   8.926   2.749  22.694
    7G1FFO Tail  114   8.742   2.832  22.579
    7G1FFO Tail  115   8.800   2.046  23.203
    7G1FFO Tail  116   8.672   2.235  23.326
    7G1FFO Tail  117   8.470   2.336  23.178
    7G1FFO Tail  118   8.295   2.456  23.045
    7G1FFO Tail  119   8.101   2.568  22.985
    8G1FFO Head  120   6.450   1.883  23.564
    8G1FFO Head  121   6.761   2.018  23.587
    8G1FFO Head  122   6.499   2.504  23.955
    8G1FFO Head  123   6.548   2.300  23.796
    8G1FFO link  124   6.781   2.257  23.717
    8G1FFO link  125   7.024   2.375  23.806
    8G1FFO Tail  126   7.233   2.417  23.580
    8G1FFO Tail  127   7.203   2.750  23.507
    8G1FFO Tail  128   7.241   2.822  23.254
    8G1FFO Tail  129   7.486   2.874  23.195
    8G1FFO Tail  130   7.716   2.907  23.104
    8G1FFO Tail  131   7.930   2.992  23.063
    8G1FFO Tail  132   7.071   2.254  23.307
    8G1FFO Tail  133   7.133   2.016  23.236
    8G1FFO Tail  134   7.226   1.988  22.992
    8G1FFO Tail  135   7.361   1.955  22.778
    8G1FFO Tail  136   7.447   1.886  22.570
    9G1FFO Head  137   8.195   4.220  24.721
    9G1FFO Head  138   8.486   4.095  24.731
    9G1FFO Head  139   8.759   4.664  24.514
    9G1FFO Head  140   8.611   4.468  24.594
    9G1FFO link  141   8.690   4.237  24.582
    9G1FFO link  142   8.790   4.139  24.335
    9G1FFO Tail  143   8.602   3.961  24.146
    9G1FFO Tail  144   8.288   4.092  24.224
    9G1FFO Tail  145   8.183   4.316  24.130
    9G1FFO Tail  146   7.965   4.296  23.983
    9G1FFO Tail  147   7.770   4.315  23.815
    9G1FFO Tail  148   7.569   4.259  23.700
    9G1FFO Tail  149   8.576   3.673  24.319
    9G1FFO Tail  150   8.354   3.638  24.456
    9G1FFO Tail  151   8.290   3.395  24.548
    9G1FFO Tail  152   8.189   3.168  24.609
    9G1FFO Tail  153   8.128   2.950  24.647
   10G1FFO Head  154   7.866  -1.441  25.243
   10G1FFO Head  155   8.067  -1.434  25.466
   10G1FFO Head  156   8.387  -1.480  25.793
   10G1FFO Head  157   8.310  -1.230  25.736
   10G1FFO link  158   8.095  -1.214  25.608
   10G1FFO link  159   8.002  -0.952  25.529
   10G1FFO Tail  160   8.017  -0.859  25.209
   10G1FFO Tail  161   8.195  -0.554  25.236
   10G1FFO Tail  162   8.268  -0.389  25.031
   10G1FFO Tail  163   8.506  -0.411  24.909
   10G1FFO Tail  164   8.750  -0.404  24.848
   10G1FFO Tail  165   8.984  -0.420  24.851
   10G1FFO Tail  166   7.718  -0.683  25.172
   10G1FFO Tail  167   7.679  -0.463  25.043
   10G1FFO Tail  168   7.843  -0.266  25.105
   10G1FFO Tail  169   7.971  -0.042  25.168
   10G1FFO Tail  170   8.096   0.130  25.271
   11G1FFO Head  171  12.664   1.558  23.413
   11G1FFO Head  172  12.503   1.432  23.654
   11G1FFO Head  173  12.188   1.377  23.184
   11G1FFO Head  174  12.180   1.499  23.447
   11G1FFO link  175  12.257   1.362  23.647
   11G1FFO link  176  12.139   1.122  23.740
   11G1FFO Tail  177  11.815   1.075  23.679
   11G1FFO Tail  178  11.738   0.730  23.715
   11G1FFO Tail  179  11.698   0.624  23.953
   11G1FFO Tail  180  11.458   0.539  24.019
   11G1FFO Tail  181  11.223   0.463  24.049
   11G1FFO Tail  182  11.024   0.346  24.089
   11G1FFO Tail  183  11.806   1.058  23.314
   11G1FFO Tail  184  11.622   0.910  23.195
   11G1FFO Tail  185  11.482   0.753  23.331
   11G1FFO Tail  186  11.372   0.591  23.490
   11G1FFO Tail  187  11.248   0.424  23.606
   12G1FFO Head  188  11.662   3.897  24.794
   12G1FFO Head  189  11.703   3.588  24.686
   12G1FFO Head  190  11.142   3.805  24.693
   12G1FFO Head  191  11.337   3.599  24.533
   12G1FFO link  192  11.472   3.453  24.675
   12G1FFO link  193  11.356   3.314  24.892
   12G1FFO Tail  194  11.201   3.463  25.142
   12G1FFO Tail  195  10.894   3.492  25.005
   12G1FFO Tail  196  10.779   3.731  24.993
   12G1FFO Tail  197  10.686   3.815  24.770
   12G1FFO Tail  198  10.561   3.898  24.570
   12G1FFO Tail  199  10.427   3.900  24.381
   12G1FFO Tail  200  11.296   3.802  25.113
   12G1FFO Tail  201  11.161   4.004  25.179
   12G1FFO Tail  202  10.997   4.119  25.030
   12G1FFO Tail  203  10.833   4.261  24.907
   12G1FFO Tail  204  10.656   4.324  24.771
   13G1FFO Head  205   7.773   5.112  27.174
   13G1FFO Head  206   8.051   5.016  27.082
   13G1FFO Head  207   8.150   5.498  27.102
   13G1FFO Head  208   8.212   5.332  26.854
   13G1FFO link  209   8.120   5.093  26.843
   13G1FFO link  210   8.000   5.010  26.608
   13G1FFO Tail  211   7.998   4.680  26.521
   13G1FFO Tail  212   8.260   4.548  26.726
   13G1FFO Tail  213   8.505   4.556  26.626
   13G1FFO Tail  214   8.583   4.448  26.406
   13G1FFO Tail  215   8.641   4.339  26.176
   13G1FFO Tail  216   8.649   4.196  25.988
   13G1FFO Tail  217   8.165   4.726  26.214
   13G1FFO Tail  218   8.107   4.561  26.018
   13G1FFO Tail  219   8.188   4.615  25.776
   13G1FFO Tail  220   8.238   4.691  25.538
   13G1FFO Tail  221   8.335   4.791  25.347
   14G1FFO Head  222   6.364   4.548  25.904
   14G1FFO Head  223   6.330   4.649  25.588
   14G1FFO Head  224   6.304   4.895  25.199
   14G1FFO Head  225   6.235   4.615  25.211
   14G1FFO link  226   6.316   4.467  25.399
   14G1FFO link  227   6.491   4.239  25.417
   14G1FFO Tail  228   6.811   4.289  25.458
   14G1FFO Tail  229   6.812   4.552  25.680
   14G1FFO Tail  230   6.973   4.583  25.882
   14G1FFO Tail  231   6.890   4.540  26.124
   14G1FFO Tail  232   6.843   4.511  26.377
   14G1FFO Tail  233   6.757   4.519  26.591
   14G1FFO Tail  234   6.894   4.423  25.153
   14G1FFO Tail  235   7.122   4.399  25.032
   14G1FFO Tail  236   7.244   4.165  25.048
   14G1FFO Tail  237   7.355   3.950  25.107
   14G1FFO Tail  238   7.411   3.726  25.144
   15G1FFO Head  239   8.450   0.135  23.140
   15G1FFO Head  240   8.127   0.171  23.177
   15G1FFO Head  241   8.217   0.379  22.687
   15G1FFO Head  242   8.134   0.512  22.992
   15G1FFO link  243   7.994   0.390  23.159
   15G1FFO link  244   7.733   0.408  23.258
   15G1FFO Tail  245   7.624   0.191  23.463
   15G1FFO Tail  246   7.901   0.155  23.678
   15G1FFO Tail  247   8.093   0.329  23.683
   15G1FFO Tail  248   8.093   0.537  23.523
   15G1FFO Tail  249   8.090   0.739  23.377
   15G1FFO Tail  250   8.138   0.963  23.300
   15G1FFO Tail  251   7.666  -0.108  23.282
   15G1FFO Tail  252   7.800  -0.076  23.054
   15G1FFO Tail  253   7.783   0.119  22.892
   15G1FFO Tail  254   7.763   0.342  22.768
   15G1FFO Tail  255   7.774   0.511  22.600
   16G1FFO Head  256  10.165  -0.905  25.020
   16G1FFO Head  257   9.984  -0.676  24.966
   16G1FFO Head  258  10.493  -0.638  24.793
   16G1FFO Head  259  10.328  -0.484  24.995
   16G1FFO link  260  10.087  -0.430  24.921
   16G1FFO link  261  10.039  -0.274  24.681
   16G1FFO Tail  262   9.739  -0.179  24.578
   16G1FFO Tail  263   9.840   0.050  24.322
   16G1FFO Tail  264  10.066   0.020  24.180
   16G1FFO Tail  265  10.262  -0.154  24.241
   16G1FFO Tail  266  10.428  -0.312  24.349
   16G1FFO Tail  267  10.617  -0.419  24.446
   16G1FFO Tail  268   9.649   0.062  24.816
   16G1FFO Tail  269   9.844   0.171  24.956
   16G1FFO Tail  270   9.799   0.379  25.105
   16G1FFO Tail  271   9.769   0.605  25.232
   16G1FFO Tail  272   9.689   0.777  25.372
   17G1FFO Head  273   5.968   0.326  23.884
   17G1FFO Head  274   6.146   0.122  23.750
   17G1FFO Head  275   5.785   0.263  23.402
   17G1FFO Head  276   6.119   0.295  23.377
   17G1FFO link  277   6.269   0.136  23.519
   17G1FFO link  278   6.551   0.145  23.505
   17G1FFO Tail  279   6.713   0.285  23.260
   17G1FFO Tail  280   6.551   0.594  23.268
   17G1FFO Tail  281   6.693   0.805  23.223
   17G1FFO Tail  282   6.655   1.004  23.373
   17G1FFO Tail  283   6.658   1.214  23.516
   17G1FFO Tail  284   6.685   1.437  23.587
   17G1FFO Tail  285   6.562   0.107  22.992
   17G1FFO Tail  286   6.548  -0.144  23.010
   17G1FFO Tail  287   6.778  -0.277  23.049
   17G1FFO Tail  288   6.971  -0.418  23.134
   17G1FFO Tail  289   7.150  -0.502  23.270
   18G1FFO Head  290   7.874   0.925  27.431
   18G1FFO Head  291   7.984   1.205  27.266
   18G1FFO Head  292   8.530   0.824  27.194
   18G1FFO Head  293   8.370   1.081  27.297
   18G1FFO link  294   8.185   1.165  27.128
   18G1FFO link  295   8.234   1.264  26.862
   18G1FFO Tail  296   8.104   1.105  26.624
   18G1FFO Tail  297   8.340   1.179  26.393
   18G1FFO Tail  298   8.534   1.339  26.462
   18G1FFO Tail  299   8.625   1.503  26.273
   18G1FFO Tail  300   8.714   1.654  26.077
   18G1FFO Tail  301   8.824   1.759  25.901
   18G1FFO Tail  302   7.857   1.346  26.560
   18G1FFO Tail  303   7.910   1.600  26.592
   18G1FFO Tail  304   8.155   1.676  26.599
   18G1FFO Tail  305   8.375   1.793  26.613
   18G1FFO Tail  306   8.593   1.893  26.563
   19G1FFO Head  307   9.096   3.136  26.508
   19G1FFO Head  308   8.875   3.333  26.406
   19G1FFO Head  309   9.135   3.862  26.612
   19G1FFO Head  310   9.007   3.653  26.597
   19G1FFO link  311   8.949   3.587  26.378
   19G1FFO link  312   8.883   3.767  26.168
   19G1FFO Tail  313   8.919   3.662  25.852
   19G1FFO Tail  314   9.197   3.854  25.783
   19G1FFO Tail  315   9.224   4.069  25.925
   19G1FFO Tail  316   9.392   4.101  26.122
   19G1FFO Tail  317   9.543   4.120  26.317
   19G1FFO Tail  318   9.638   4.196  26.524
   19G1FFO Tail  319   8.672   3.864  25.708
   19G1FFO Tail  320   8.666   3.993  25.474
   19G1FFO Tail  321   8.525   3.881  25.280
   19G1FFO Tail  322   8.426   3.777  25.067
   19G1FFO Tail  323   8.336   3.727  24.858
   20G1FFO Head  324   9.284   3.385  22.236
   20G1FFO Head  325   9.059   3.438  22.440
   20G1FFO Head  326   9.223   3.888  22.183
   20G1FFO Head  327   8.969   3.735  22.177
   20G1FFO link  328   8.911   3.635  22.397
   20G1FFO link  329   8.675   3.695  22.532
   20G1FFO Tail  330   8.552   3.495  22.753
   20G1FFO Tail  331   8.677   3.663  23.031
   20G1FFO Tail  332   8.841   3.855  22.995
   20G1FFO Tail  333   9.029   3.813  22.820
   20G1FFO Tail  334   9.218   3.781  22.667
   20G1FFO Tail  335   9.392   3.695  22.547
   20G1FFO Tail  336   8.792   3.245  22.762
   20G1FFO Tail  337   8.881   3.134  22.987
   20G1FFO Tail  338   8.940   3.284  23.189
   20G1FFO Tail  339   9.027   3.445  23.368
   20G1FFO Tail  340   9.122   3.551  23.558
   21G1FFO Head  341  12.769   1.066  24.917
   21G1FFO Head  342  12.823   1.384  24.991
   21G1FFO Head  343  13.178   1.225  24.657
   21G1FFO Head  344  12.976   1.430  24.630
   21G1FFO link  345  12.860   1.572  24.813
   21G1FFO link  346  12.867   1.857  24.845
   21G1FFO Tail  347  12.703   2.002  25.077
   21G1FFO Tail  348  12.562   1.715  25.226
   21G1FFO Tail  349  12.306   1.638  25.190
   21G1FFO Tail  350  12.267   1.405  25.090
   21G1FFO Tail  351  12.242   1.190  24.948
   21G1FFO Tail  352  12.195   1.050  24.765
   21G1FFO Tail  353  12.407   2.115  24.911
   21G1FFO Tail  354  12.286   1.977  24.724
   21G1FFO Tail  355  12.405   1.761  24.638
   21G1FFO Tail  356  12.486   1.530  24.585
   21G1FFO Tail  357  12.545   1.301  24.568
   22G1FFO Head  358   6.148   2.416  22.225
   22G1FFO Head  359   6.301   2.632  22.142
   22G1FFO Head  360   5.838   2.960  22.116
   22G1FFO Head  361   6.167   3.005  22.156
   22G1FFO link  362   6.280   2.838  22.295
   22G1FFO link  363   6.247   2.813  22.584
   22G1FFO Tail  364   6.145   2.539  22.733
   22G1FFO Tail  365   6.290   2.594  23.038
   22G1FFO Tail  366   6.166   2.583  23.270
   22G1FFO Tail  367   6.237   2.763  23.447
   22G1FFO Tail  368   6.344   2.903  23.636
   22G1FFO Tail  369   6.480   3.054  23.755
   22G1FFO Tail  370   6.383   2.320  22.621
   22G1FFO Tail  371   6.564   2.375  22.456
   22G1FFO Tail  372   6.676   2.615  22.470
   22G1FFO Tail  373   6.809   2.831  22.491
   22G1FFO Tail  374   6.954   2.997  22.577
   23G1FFO Head  375   6.644   3.030  27.955
   23G1FFO Head  376   6.765   3.079  27.680
   23G1FFO Head  377   6.320   2.838  27.556
   23G1FFO Head  378   6.399   3.157  27.467
   23G1FFO link  379   6.641   3.238  27.510
   23G1FFO link  380   6.753   3.483  27.399
   23G1FFO Tail  381   7.028   3.643  27.469
   23G1FFO Tail  382   6.944   3.964  27.374
   23G1FFO Tail  383   6.830   4.009  27.134
   23G1FFO Tail  384   6.812   3.808  26.972
   23G1FFO Tail  385   6.772   3.640  26.777
   23G1FFO Tail  386   6.732   3.448  26.643
   23G1FFO Tail  387   7.205   3.522  27.194
   23G1FFO Tail  388   7.108   3.471  26.953
   23G1FFO Tail  389   7.116   3.224  26.872
   23G1FFO Tail  390   7.164   2.983  26.802
   23G1FFO Tail  391   7.196   2.790  26.680
   24G1FFO Head  392   9.692   2.082  21.110
   24G1FFO Head  393   9.593   1.908  21.327
   24G1FFO Head  394  10.038   1.666  20.974
   24G1FFO Head  395   9.967   1.659  21.285
   24G1FFO link  396   9.724   1.670  21.379
   24G1FFO link  397   9.579   1.452  21.496
   24G1FFO Tail  398   9.777   1.226  21.659
   24G1FFO Tail  399   9.522   1.017  21.811
   24G1FFO Tail  400   9.365   0.877  21.644
   24G1FFO Tail  401   9.300   1.013  21.429
   24G1FFO Tail  402   9.247   1.175  21.234
   24G1FFO Tail  403   9.155   1.270  21.043
   24G1FFO Tail  404   9.910   1.425  21.912
   24G1FFO Tail  405  10.160   1.469  21.943
   24G1FFO Tail  406  10.271   1.611  21.734
   24G1FFO Tail  407  10.341   1.719  21.520
   24G1FFO Tail  408  10.391   1.777  21.300
   25G1FFO Head  409   6.972   2.089  25.132
   25G1FFO Head  410   6.762   2.265  24.998
   25G1FFO Head  411   6.553   2.685  25.495
   25G1FFO Head  412   6.698   2.477  25.371
   25G1FFO link  413   6.698   2.480  25.123
   25G1FFO link  414   6.671   2.728  24.971
   25G1FFO Tail  415   6.679   2.799  24.656
   25G1FFO Tail  416   6.646   2.493  24.490
   25G1FFO Tail  417   6.810   2.442  24.301
   25G1FFO Tail  418   6.797   2.205  24.173
   25G1FFO Tail  419   6.794   1.964  24.061
   25G1FFO Tail  420   6.852   1.772  23.946
   25G1FFO Tail  421   7.042   2.835  24.605
   25G1FFO Tail  422   7.198   2.639  24.675
   25G1FFO Tail  423   7.114   2.394  24.669
   25G1FFO Tail  424   7.017   2.169  24.624
   25G1FFO Tail  425   6.960   1.956  24.538
   26G1FFO Head  426  10.632   2.894  21.228
   26G1FFO Head  427  10.587   2.972  21.552
   26G1FFO Head  428  10.756   2.333  21.673
   26G1FFO Head  429  10.713   2.654  21.764
   26G1FFO link  430  10.483   2.801  21.722
   26G1FFO link  431  10.223   2.703  21.730
   26G1FFO Tail  432  10.155   2.520  21.989
   26G1FFO Tail  433  10.473   2.460  22.137
   26G1FFO Tail  434  10.528   2.514  22.389
   26G1FFO Tail  435  10.350   2.483  22.575
   26G1FFO Tail  436  10.172   2.501  22.763
   26G1FFO Tail  437  10.002   2.559  22.904
   26G1FFO Tail  438  10.128   2.201  21.872
   26G1FFO Tail  439  10.265   1.989  21.962
   26G1FFO Tail  440  10.149   1.836  22.150
   26G1FFO Tail  441  10.082   1.693  22.360
   26G1FFO Tail  442  10.046   1.616  22.575
   27G1FFO Head  443  12.693   0.275  25.083
   27G1FFO Head  444  12.441   0.106  25.148
   27G1FFO Head  445  12.075  -0.109  25.693
   27G1FFO Head  446  12.315   0.081  25.518
   27G1FFO link  447  12.261   0.172  25.319
   27G1FFO link  448  12.048   0.340  25.225
   27G1FFO Tail  449  11.965   0.590  25.421
   27G1FFO Tail  450  12.226   0.791  25.388
   27G1FFO Tail  451  12.345   0.830  25.156
   27G1FFO Tail  452  12.334   0.647  24.968
   27G1FFO Tail  453  12.306   0.445  24.814
   27G1FFO Tail  454  12.235   0.240  24.720
   27G1FFO Tail  455  12.062   0.425  25.723
   27G1FFO Tail  456  12.223   0.500  25.921
   27G1FFO Tail  457  12.391   0.691  25.867
   27G1FFO Tail  458  12.566   0.862  25.806
   27G1FFO Tail  459  12.708   1.053  25.809
   28G1FFO Head  460   6.966  -0.648  22.707
   28G1FFO Head  461   6.981  -0.382  22.590
   28G1FFO Head  462   6.379  -0.028  22.543
   28G1FFO Head  463   6.615  -0.256  22.593
   28G1FFO link  464   6.840  -0.181  22.681
   28G1FFO link  465   6.927   0.085  22.677
   28G1FFO Tail  466   7.184   0.193  22.516
   28G1FFO Tail  467   7.397  -0.052  22.599
   28G1FFO Tail  468   7.394  -0.133  22.848
   28G1FFO Tail  469   7.240  -0.046  23.029
   28G1FFO Tail  470   7.115   0.050  23.226
   28G1FFO Tail  471   7.045   0.141  23.433
   28G1FFO Tail  472   7.298   0.428  22.740
   28G1FFO Tail  473   7.380   0.685  22.695
   28G1FFO Tail  474   7.221   0.834  22.567
   28G1FFO Tail  475   7.104   1.001  22.415
   28G1FFO Tail  476   6.976   1.181  22.339
   29G1FFO Head  477  10.553  -0.413  22.365
   29G1FFO Head  478  10.480  -0.363  22.670
   29G1FFO Head  479  10.688  -0.756  22.909
   29G1FFO Head  480  10.702  -0.467  22.996
   29G1FFO link  481  10.661  -0.270  22.834
   29G1FFO link  482  10.880  -0.089  22.783
   29G1FFO Tail  483  10.861   0.193  22.585
   29G1FFO Tail  484  10.774   0.437  22.835
   29G1FFO Tail  485  10.551   0.578  22.824
   29G1FFO Tail  486  10.428   0.676  23.043
   29G1FFO Tail  487  10.330   0.733  23.266
   29G1FFO Tail  488  10.290   0.781  23.502
   29G1FFO Tail  489  10.536   0.115  22.447
   29G1FFO Tail  490  10.424   0.278  22.276
   29G1FFO Tail  491  10.552   0.305  22.061
   29G1FFO Tail  492  10.679   0.275  21.843
   29G1FFO Tail  493  10.831   0.189  21.686
   30G1FFO Head  494   5.477   1.397  22.980
   30G1FFO Head  495   5.462   1.574  23.236
   30G1FFO Head  496   5.088   1.587  23.629
   30G1FFO Head  497   5.356   1.511  23.670
   30G1FFO link  498   5.515   1.431  23.462
   30G1FFO link  499   5.711   1.229  23.472
   30G1FFO Tail  500   5.666   0.941  23.309
   30G1FFO Tail  501   5.716   0.709  23.564
   30G1FFO Tail  502   5.946   0.707  23.692
   30G1FFO Tail  503   5.985   0.872  23.883
   30G1FFO Tail  504   6.015   1.014  24.094
   30G1FFO Tail  505   6.085   1.192  24.228
   30G1FFO Tail  506   5.981   0.874  23.170
   30G1FFO Tail  507   6.193   0.931  23.328
   30G1FFO Tail  508   6.176   1.119  23.517
   30G1FFO Tail  509   6.208   1.296  23.697
   30G1FFO Tail  510   6.269   1.415  23.893
   31G1FFO Head  511   9.064  -1.327  22.714
   31G1FFO Head  512   8.735  -1.258  22.722
   31G1FFO Head  513   8.211  -1.274  22.299
   31G1FFO Head  514   8.495  -1.289  22.353
   31G1FFO link  515   8.613  -1.142  22.503
   31G1FFO link  516   8.697  -0.882  22.413
   31G1FFO Tail  517   8.899  -0.709  22.627
   31G1FFO Tail  518   8.866  -0.874  22.926
   31G1FFO Tail  519   8.658  -0.843  23.076
   31G1FFO Tail  520   8.662  -0.929  23.329
   31G1FFO Tail  521   8.625  -1.031  23.560
   31G1FFO Tail  522   8.634  -1.096  23.781
   31G1FFO Tail  523   8.697  -0.456  22.724
   31G1FFO Tail  524   8.746  -0.290  22.913
   31G1FFO Tail  525   8.690  -0.353  23.160
   31G1FFO Tail  526   8.609  -0.412  23.393
   31G1FFO Tail  527   8.499  -0.505  23.573
   32G1FFO Head  528   9.098   1.659  21.347
   32G1FFO Head  529   8.870   1.843  21.495
   32G1FFO Head  530   8.365   1.971  21.628
   32G1FFO Head  531   8.641   1.927  21.797
   32G1FFO link  532   8.827   1.768  21.748
   32G1FFO link  533   8.923   1.536  21.900
   32G1FFO Tail  534   8.827   1.447  22.206
   32G1FFO Tail  535   8.634   1.708  22.287
   32G1FFO Tail  536   8.728   1.918  22.428
   32G1FFO Tail  537   8.882   1.858  22.628
   32G1FFO Tail  538   9.064   1.781  22.792
   32G1FFO Tail  539   9.171   1.658  22.972
   32G1FFO Tail  540   9.123   1.509  22.410
   32G1FFO Tail  541   9.251   1.328  22.558
   32G1FFO Tail  542   9.103   1.211  22.741
   32G1FFO Tail  543   8.961   1.078  22.910
   32G1FFO Tail  544   8.866   1.013  23.111
   33G1FFO Head  545   7.643   0.894  21.666
   33G1FFO Head  546   7.927   0.989  21.570
   33G1FFO Head  547   7.723   0.959  21.026
   33G1FFO Head  548   7.789   1.188  21.232
   33G1FFO link  549   7.988   1.201  21.403
   33G1FFO link  550   8.120   1.425  21.496
   33G1FFO Tail  551   8.000   1.603  21.733
   33G1FFO Tail  552   8.248   1.593  21.967
   33G1FFO Tail  553   8.367   1.365  22.028
   33G1FFO Tail  554   8.366   1.169  21.852
   33G1FFO Tail  555   8.364   0.946  21.725
   33G1FFO Tail  556   8.426   0.745  21.626
   33G1FFO Tail  557   7.791   1.364  21.868
   33G1FFO Tail  558   7.897   1.195  22.037
   33G1FFO Tail  559   7.963   1.285  22.270
   33G1FFO Tail  560   8.087   1.363  22.482
   33G1FFO Tail  561   8.183   1.371  22.690
   34G1FFO Head  562   9.292   3.542  26.211
   34G1FFO Head  563   9.446   3.286  26.107
   34G1FFO Head  564   9.755   3.406  26.659
   34G1FFO Head  565   9.585   3.251  26.494
   34G1FFO link  566   9.653   3.203  26.242
   34G1FFO link  567   9.794   2.969  26.181
   34G1FFO Tail  568   9.845   2.716  26.382
   34G1FFO Tail  569  10.181   2.775  26.450
   34G1FFO Tail  570  10.280   3.004  26.552
   34G1FFO Tail  571  10.287   3.190  26.380
   34G1FFO Tail  572  10.311   3.379  26.218
   34G1FFO Tail  573  10.390   3.549  26.073
   34G1FFO Tail  574   9.874   2.456  26.154
   34G1FFO Tail  575  10.041   2.257  26.202
   34G1FFO Tail  576  10.213   2.299  26.382
   34G1FFO Tail  577  10.414   2.328  26.540
   34G1FFO Tail  578  10.560   2.419  26.697
   35G1FFO Head  579   8.091  -1.873  24.300
   35G1FFO Head  580   8.079  -1.700  24.019
   35G1FFO Head  581   7.536  -1.734  24.048
   35G1FFO Head  582   7.743  -1.483  24.110
   35G1FFO link  583   7.966  -1.458  24.025
   35G1FFO link  584   8.115  -1.221  24.006
   35G1FFO Tail  585   8.187  -1.074  23.731
   35G1FFO Tail  586   8.128  -0.752  23.853
   35G1FFO Tail  587   8.315  -0.590  23.930
   35G1FFO Tail  588   8.259  -0.337  23.980
   35G1FFO Tail  589   8.228  -0.088  24.017
   35G1FFO Tail  590   8.173   0.149  24.023
   35G1FFO Tail  591   7.868  -1.107  23.573
   35G1FFO Tail  592   7.667  -1.000  23.699
   35G1FFO Tail  593   7.476  -1.155  23.780
   35G1FFO Tail  594   7.301  -1.291  23.897
   35G1FFO Tail  595   7.120  -1.435  23.943
   36G1FFO Head  596  12.767   2.970  25.444
   36G1FFO Head  597  12.493   3.071  25.579
   36G1FFO Head  598  12.767   3.435  25.370
   36G1FFO Head  599  12.429   3.405  25.348
   36G1FFO link  600  12.340   3.214  25.431
   36G1FFO link  601  12.053   3.176  25.427
   36G1FFO Tail  602  11.872   3.104  25.164
   36G1FFO Tail  603  11.933   3.405  25.002
   36G1FFO Tail  604  11.818   3.630  25.096
   36G1FFO Tail  605  11.707   3.618  25.314
   36G1FFO Tail  606  11.624   3.614  25.560
   36G1FFO Tail  607  11.522   3.683  25.770
   36G1FFO Tail  608  11.543   3.183  25.301
   36G1FFO Tail  609  11.348   3.006  25.277
   36G1FFO Tail  610  11.118   3.067  25.380
   36G1FFO Tail  611  10.920   3.161  25.507
   36G1FFO Tail  612  10.759   3.310  25.586
   37G1FFO Head  613  10.762   2.398  27.824
   37G1FFO Head  614  10.657   2.102  27.853
   37G1FFO Head  615  10.745   2.361  28.289
   37G1FFO Head  616  10.484   2.248  28.209
   37G1FFO link  617  10.479   2.054  28.047
   37G1FFO link  618  10.250   1.912  28.009
   37G1FFO Tail  619  10.072   1.946  27.738
   37G1FFO Tail  620  10.339   2.074  27.539
   37G1FFO Tail  621  10.357   2.326  27.541
   37G1FFO Tail  622  10.479   2.454  27.358
   37G1FFO Tail  623  10.608   2.538  27.146
   37G1FFO Tail  624  10.762   2.619  26.992
   37G1FFO Tail  625   9.939   2.247  27.826
   37G1FFO Tail  626  10.001   2.458  27.689
   37G1FFO Tail  627   9.798   2.595  27.584
   37G1FFO Tail  628   9.619   2.739  27.457
   37G1FFO Tail  629   9.434   2.803  27.328
   38G1FFO Head  630   6.613   3.628  21.732
   38G1FFO Head  631   6.662   3.765  21.990
   38G1FFO Head  632   6.077   3.487  22.220
   38G1FFO Head  633   6.342   3.549  22.100
   38G1FFO link  634   6.477   3.759  22.178
   38G1FFO link  635   6.551   3.764  22.458
   38G1FFO Tail  636   6.474   3.537  22.675
   38G1FFO Tail  637   6.775   3.465  22.826
   38G1FFO Tail  638   6.997   3.464  22.684
   38G1FFO Tail  639   6.984   3.464  22.435
   38G1FFO Tail  640   6.983   3.512  22.182
   38G1FFO Tail  641   7.063   3.568  21.959
   38G1FFO Tail  642   6.487   3.258  22.468
   38G1FFO Tail  643   6.646   3.252  22.252
   38G1FFO Tail  644   6.607   3.050  22.103
   38G1FFO Tail  645   6.616   2.852  21.934
   38G1FFO Tail  646   6.565   2.697  21.768
   39G1FFO Head  647   9.187  -1.893  24.330
   39G1FFO Head  648   9.044  -1.676  24.142
   39G1FFO Head  649   8.957  -2.067  23.968
   39G1FFO Head  650   9.005  -1.819  23.781
   39G1FFO link  651   9.120  -1.629  23.885
   39G1FFO link  652   9.224  -1.399  23.768
   39G1FFO Tail  653   9.043  -1.128  23.728
   39G1FFO Tail  654   9.281  -0.980  23.493
   39G1FFO Tail  655   9.371  -1.088  23.275
   39G1FFO Tail  656   9.608  -1.023  23.194
   39G1FFO Tail  657   9.843  -0.944  23.121
   39G1FFO Tail  658  10.009  -0.864  22.986
   39G1FFO Tail  659   9.166  -0.978  24.019
   39G1FFO Tail  660   9.185  -1.110  24.253
   39G1FFO Tail  661   9.325  -1.328  24.261
   39G1FFO Tail  662   9.495  -1.512  24.318
   39G1FFO Tail  663   9.676  -1.649  24.367
   40G1FFO Head  664  10.739  -0.856  24.329
   40G1FFO Head  665  10.835  -0.763  24.572
   40G1FFO Head  666  11.255  -0.648  24.276
   40G1FFO Head  667  11.065  -0.469  24.405
   40G1FFO link  668  10.946  -0.537  24.615
   40G1FFO link  669  10.923  -0.350  24.833
   40G1FFO Tail  670  10.844  -0.044  24.772
   40G1FFO Tail  671  10.885   0.115  25.075
   40G1FFO Tail  672  10.891  -0.039  25.294
   40G1FFO Tail  673  10.757  -0.252  25.300
   40G1FFO Tail  674  10.650  -0.480  25.292
   40G1FFO Tail  675  10.611  -0.714  25.334
   40G1FFO Tail  676  10.496  -0.046  24.758
   40G1FFO Tail  677  10.338  -0.049  24.962
   40G1FFO Tail  678  10.320   0.160  25.112
   40G1FFO Tail  679  10.347   0.387  25.238
   40G1FFO Tail  680  10.372   0.545  25.411
   41G1FFO Head  681  11.894  -0.579  24.801
   41G1FFO Head  682  11.857  -0.290  24.711
   41G1FFO Head  683  11.691  -0.441  25.232
   41G1FFO Head  684  11.859  -0.192  25.110
   41G1FFO link  685  11.795  -0.105  24.905
   41G1FFO link  686  11.733   0.179  24.854
   41G1FFO Tail  687  11.592   0.372  25.072
   41G1FFO Tail  688  11.502   0.129  25.328
   41G1FFO Tail  689  11.386  -0.103  25.274
   41G1FFO Tail  690  11.363  -0.181  25.031
   41G1FFO Tail  691  11.370  -0.265  24.789
   41G1FFO Tail  692  11.439  -0.338  24.582
   41G1FFO Tail  693  11.272   0.423  24.946
   41G1FFO Tail  694  11.138   0.312  24.746
   41G1FFO Tail  695  11.008   0.477  24.583
   41G1FFO Tail  696  10.910   0.633  24.406
   41G1FFO Tail  697  10.780   0.731  24.232
   42G1FFO Head  698  11.248   2.628  27.421
   42G1FFO Head  699  11.164   2.572  27.154
   42G1FFO Head  700  11.543   2.025  27.093
   42G1FFO Head  701  11.514   2.372  27.143
   42G1FFO link  702  11.349   2.484  26.987
   42G1FFO link  703  11.300   2.394  26.729
   42G1FFO Tail  704  11.022   2.357  26.567
   42G1FFO Tail  705  11.134   2.330  26.248
   42G1FFO Tail  706  11.028   2.461  26.046
   42G1FFO Tail  707  10.971   2.334  25.835
   42G1FFO Tail  708  10.960   2.165  25.645
   42G1FFO Tail  709  10.965   2.058  25.444
   42G1FFO Tail  710  10.908   2.689  26.578
   42G1FFO Tail  711  10.696   2.729  26.429
   42G1FFO Tail  712  10.687   2.941  26.277
   42G1FFO Tail  713  10.723   3.144  26.126
   42G1FFO Tail  714  10.810   3.330  26.018
   43G1FFO Head  715   9.849  -1.896  24.777
   43G1FFO Head  716   9.565  -1.760  24.804
   43G1FFO Head  717   9.773  -1.672  25.258
   43G1FFO Head  718   9.550  -1.528  25.149
   43G1FFO link  719   9.537  -1.528  24.890
   43G1FFO link  720   9.410  -1.328  24.729
   43G1FFO Tail  721   9.485  -1.005  24.710
   43G1FFO Tail  722   9.585  -0.941  25.027
   43G1FFO Tail  723   9.470  -0.761  25.182
   43G1FFO Tail  724   9.224  -0.763  25.221
   43G1FFO Tail  725   8.968  -0.741  25.222
   43G1FFO Tail  726   8.751  -0.686  25.288
   43G1FFO Tail  727   9.196  -0.815  24.648
   43G1FFO Tail  728   8.973  -0.915  24.565
   43G1FFO Tail  729   8.763  -0.909  24.715
   43G1FFO Tail  730   8.527  -0.890  24.821
   43G1FFO Tail  731   8.344  -0.848  24.965
   44G1FFO Head  732   5.566   3.476  23.560
   44G1FFO Head  733   5.671   3.318  23.775
   44G1FFO Head  734   5.787   3.038  23.355
   44G1FFO Head  735   5.856   2.997  23.642
   44G1FFO link  736   5.935   3.209  23.786
   44G1FFO link  737   6.065   3.204  24.022
   44G1FFO Tail  738   6.024   2.934  24.207
   44G1FFO Tail  739   6.360   2.836  24.280
   44G1FFO Tail  740   6.582   2.969  24.210
   44G1FFO Tail  741   6.807   2.856  24.164
   44G1FFO Tail  742   7.033   2.769  24.087
   44G1FFO Tail  743   7.257   2.765  24.017
   44G1FFO Tail  744   5.999   2.716  23.937
   44G1FFO Tail  745   6.065   2.470  23.968
   44G1FFO Tail  746   6.087   2.333  23.752
   44G1FFO Tail  747   6.082   2.240  23.517
   44G1FFO Tail  748   6.137   2.183  23.301
   45G1FFO Head  749   7.349   4.723  26.299
   45G1FFO Head  750   7.659   4.665  26.174
   45G1FFO Head  751   7.849   5.126  26.093
   45G1FFO Head  752   7.851   4.902  25.887
   45G1FFO link  753   7.723   4.667  25.916
   45G1FFO link  754   7.735   4.433  25.752
   45G1FFO Tail  755   7.522   4.186  25.758
   45G1FFO Tail  756   7.277   4.309  25.530
   45G1FFO Tail  757   7.285   4.553  25.438
   45G1FFO Tail  758   7.305   4.743  25.617
   45G1FFO Tail  759   7.317   4.887  25.825
   45G1FFO Tail  760   7.332   5.060  25.989
   45G1FFO Tail  761   7.391   4.289  26.063
   45G1FFO Tail  762   7.390   4.122  26.280
   45G1FFO Tail  763   7.157   4.107  26.402
   45G1FFO Tail  764   6.944   4.063  26.535
   45G1FFO Tail  765   6.739   4.087  26.652
   46G1FFO Head  766   9.582  -1.255  26.072
   46G1FFO Head  767   9.442  -1.061  26.316
   46G1FFO Head  768   9.073  -1.247  26.049
   46G1FFO Head  769   9.143  -0.901  26.074
   46G1FFO link  770   9.328  -0.819  26.259
   46G1FFO link  771   9.481  -0.582  26.256
   46G1FFO Tail  772   9.367  -0.302  26.124
   46G1FFO Tail  773   9.340  -0.131  26.430
   46G1FFO Tail  774   9.391   0.113  26.443
   46G1FFO Tail  775   9.610   0.205  26.348
   46G1FFO Tail  776   9.811   0.270  26.214
   46G1FFO Tail  777   9.972   0.300  26.044
   46G1FFO Tail  778   9.069  -0.443  26.049
   46G1FFO Tail  779   9.033  -0.572  25.827
   46G1FFO Tail  780   9.069  -0.450  25.598
   46G1FFO Tail  781   9.101  -0.291  25.401
   46G1FFO Tail  782   9.067  -0.120  25.247
   47G1FFO Head  783  11.768   3.784  24.218
   47G1FFO Head  784  11.794   3.460  24.251
   47G1FFO Head  785  12.065   3.518  23.860
   47G1FFO Head  786  12.116   3.287  24.074
   47G1FFO link  787  12.023   3.319  24.313
   47G1FFO link  788  12.152   3.292  24.565
   47G1FFO Tail  789  12.235   2.994  24.667
   47G1FFO Tail  790  11.938   2.868  24.755
   47G1FFO Tail  791  11.737   3.026  24.764
   47G1FFO Tail  792  11.620   3.107  24.542
   47G1FFO Tail  793  11.462   3.181  24.362
   47G1FFO Tail  794  11.312   3.306  24.224
   47G1FFO Tail  795  12.362   3.050  24.986
   47G1FFO Tail  796  12.312   2.878  25.169
   47G1FFO Tail  797  12.208   2.652  25.095
   47G1FFO Tail  798  12.069   2.442  25.037
   47G1FFO Tail  799  11.921   2.286  24.947
   48G1FFO Head  800   8.718  -0.088  21.681
   48G1FFO Head  801   8.597  -0.314  21.794
   48G1FFO Head  802   8.385  -0.802  21.969
   48G1FFO Head  803   8.679  -0.679  21.988
   48G1FFO link  804   8.710  -0.417  21.995
   48G1FFO link  805   8.721  -0.250  22.235
   48G1FFO Tail  806   8.474  -0.125  22.416
   48G1FFO Tail  807   8.353   0.129  22.222
   48G1FFO Tail  808   8.092   0.173  22.237
   48G1FFO Tail  809   7.956   0.021  22.386
   48G1FFO Tail  810   7.841  -0.173  22.505
   48G1FFO Tail  811   7.790  -0.387  22.600
   48G1FFO Tail  812   8.607   0.061  22.670
   48G1FFO Tail  813   8.858   0.156  22.652
   48G1FFO Tail  814   9.010   0.065  22.458
   48G1FFO Tail  815   9.130   0.002  22.252
   48G1FFO Tail  816   9.182  -0.071  22.038
   49G1FFO Head  817  11.202   0.179  27.750
   49G1FFO Head  818  10.980   0.374  27.811
   49G1FFO Head  819  10.517   0.143  27.774
   49G1FFO Head  820  10.694   0.244  27.558
   49G1FFO link  821  10.823   0.459  27.605
   49G1FFO link  822  10.916   0.646  27.410
   49G1FFO Tail  823  10.922   0.976  27.465
   49G1FFO Tail  824  10.818   1.091  27.159
   49G1FFO Tail  825  10.767   0.947  26.955
   49G1FFO Tail  826  10.799   0.685  26.951
   49G1FFO Tail  827  10.866   0.439  26.956
   49G1FFO Tail  828  10.979   0.237  26.908
   49G1FFO Tail  829  11.275   1.015  27.420
   49G1FFO Tail  830  11.390   1.210  27.297
   49G1FFO Tail  831  11.262   1.411  27.189
   49G1FFO Tail  832  11.166   1.630  27.113
   49G1FFO Tail  833  11.142   1.862  27.065
   50G1FFO Head  834   8.058  -1.095  26.177
   50G1FFO Head  835   8.111  -0.911  25.944
   50G1FFO Head  836   8.532  -1.137  26.235
   50G1FFO Head  837   8.534  -0.892  26.077
   50G1FFO link  838   8.364  -0.843  25.895
   50G1FFO link  839   8.432  -0.667  25.681
   50G1FFO Tail  840   8.394  -0.348  25.740
   50G1FFO Tail  841   8.571  -0.224  25.448
   50G1FFO Tail  842   8.466  -0.102  25.253
   50G1FFO Tail  843   8.613   0.063  25.110
   50G1FFO Tail  844   8.742   0.197  24.938
   50G1FFO Tail  845   8.811   0.304  24.746
   50G1FFO Tail  846   8.606  -0.308  26.015
   50G1FFO Tail  847   8.592  -0.429  26.258
   50G1FFO Tail  848   8.428  -0.311  26.419
   50G1FFO Tail  849   8.240  -0.198  26.536
   50G1FFO Tail  850   8.102  -0.084  26.696
   51G1FFO Head  851  11.467   1.372  21.791
   51G1FFO Head  852  11.196   1.502  21.688
   51G1FFO Head  853  11.166   1.853  22.142
   51G1FFO Head  854  11.095   1.557  22.075
   51G1FFO link  855  10.994   1.512  21.837
   51G1FFO link  856  10.742   1.370  21.807
   51G1FFO Tail  857  10.558   1.321  22.072
   51G1FFO Tail  858  10.608   1.624  22.237
   51G1FFO Tail  859  10.670   1.859  22.124
   51G1FFO Tail  860  10.734   1.875  21.866
   51G1FFO Tail  861  10.826   1.836  21.628
   51G1FFO Tail  862  10.935   1.752  21.431
   51G1FFO Tail  863  10.789   1.155  22.259
   51G1FFO Tail  864  11.017   1.074  22.148
   51G1FFO Tail  865  11.225   0.995  22.301
   51G1FFO Tail  866  11.395   0.898  22.460
   51G1FFO Tail  867  11.501   0.746  22.617
   52G1FFO Head  868   9.122   5.266  24.163
   52G1FFO Head  869   9.441   5.219  24.269
   52G1FFO Head  870   9.956   5.256  24.363
   52G1FFO Head  871   9.808   5.042  24.196
   52G1FFO link  872   9.574   4.991  24.302
   52G1FFO link  873   9.512   4.763  24.472
   52G1FFO Tail  874   9.195   4.655  24.471
   52G1FFO Tail  875   9.288   4.349  24.321
   52G1FFO Tail  876   9.324   4.102  24.429
   52G1FFO Tail  877   9.150   4.030  24.607
   52G1FFO Tail  878   8.979   3.911  24.745
   52G1FFO Tail  879   8.855   3.819  24.922
   52G1FFO Tail  880   9.087   4.785  24.174
   52G1FFO Tail  881   9.248   4.863  23.973
   52G1FFO Tail  882   9.179   4.775  23.737
   52G1FFO Tail  883   9.165   4.654  23.505
   52G1FFO Tail  884   9.175   4.603  23.272
   53G1FFO Head  885   6.375  -0.601  23.373
   53G1FFO Head  886   6.704  -0.670  23.401
   53G1FFO Head  887   6.947  -1.028  23.641
   53G1FFO Head  888   6.920  -0.713  23.744
   53G1FFO link  889   6.825  -0.533  23.600
   53G1FFO link  890   6.900  -0.255  23.588
   53G1FFO Tail  891   6.903  -0.078  23.856
   53G1FFO Tail  892   7.205   0.076  23.847
   53G1FFO Tail  893   7.399  -0.029  23.706
   53G1FFO Tail  894   7.401  -0.296  23.679
   53G1FFO Tail  895   7.367  -0.551  23.659
   53G1FFO Tail  896   7.305  -0.774  23.662
   53G1FFO Tail  897   6.996  -0.345  24.073
   53G1FFO Tail  898   7.252  -0.363  24.112
   53G1FFO Tail  899   7.357  -0.222  24.294
   53G1FFO Tail  900   7.478  -0.135  24.497
   53G1FFO Tail  901   7.564  -0.109  24.710
   54G1FFO Head  902   5.589   1.249  24.408
   54G1FFO Head  903   5.701   0.991  24.592
   54G1FFO Head  904   5.726   0.594  24.274
   54G1FFO Head  905   5.940   0.686  24.436
   54G1FFO link  906   5.956   0.924  24.533
   54G1FFO link  907   6.179   1.026  24.677
   54G1FFO Tail  908   6.376   1.269  24.559
   54G1FFO Tail  909   6.663   1.070  24.667
   54G1FFO Tail  910   6.734   0.862  24.532
   54G1FFO Tail  911   6.530   0.742  24.423
   54G1FFO Tail  912   6.367   0.613  24.295
   54G1FFO Tail  913   6.248   0.463  24.174
   54G1FFO Tail  914   6.350   1.506  24.818
   54G1FFO Tail  915   6.540   1.525  25.003
   54G1FFO Tail  916   6.779   1.604  24.929
   54G1FFO Tail  917   7.019   1.686  24.882
   54G1FFO Tail  918   7.215   1.814  24.862
   55G1FFO Head  919   6.444   4.080  26.346
   55G1FFO Head  920   6.579   3.787  26.406
   55G1FFO Head  921   7.100   3.342  26.352
   55G1FFO Head  922   6.960   3.629  26.374
   55G1FFO link  923   6.767   3.698  26.230
   55G1FFO link  924   6.695   3.600  25.969
   55G1FFO Tail  925   6.940   3.454  25.793
   55G1FFO Tail  926   6.972   3.157  25.925
   55G1FFO Tail  927   7.207   3.117  26.041
   55G1FFO Tail  928   7.437   3.166  25.923
   55G1FFO Tail  929   7.665   3.247  25.839
   55G1FFO Tail  930   7.888   3.305  25.815
   55G1FFO Tail  931   7.229   3.599  25.931
   55G1FFO Tail  932   7.237   3.853  26.003
   55G1FFO Tail  933   7.013   3.978  25.998
   55G1FFO Tail  934   6.795   4.094  25.935
   55G1FFO Tail  935   6.597   4.215  25.943
   56G1FFO Head  936   8.872   1.619  24.935
   56G1FFO Head  937   8.876   1.632  24.644
   56G1FFO Head  938   8.932   1.007  24.507
   56G1FFO Head  939   8.858   1.262  24.455
   56G1FFO link  940   8.996   1.440  24.498
   56G1FFO link  941   9.278   1.443  24.456
   56G1FFO Tail  942   9.402   1.309  24.175
   56G1FFO Tail  943   9.145   1.372  23.959
   56G1FFO Tail  944   8.930   1.500  24.042
   56G1FFO Tail  945   8.970   1.701  24.191
   56G1FFO Tail  946   9.017   1.908  24.330
   56G1FFO Tail  947   9.086   2.124  24.396
   56G1FFO Tail  948   9.374   0.973  24.245
   56G1FFO Tail  949   9.515   0.855  24.435
   56G1FFO Tail  950   9.462   0.604  24.484
   56G1FFO Tail  951   9.416   0.356  24.476
   56G1FFO Tail  952   9.326   0.141  24.428
   57G1FFO Head  953   8.729   1.062  27.662
   57G1FFO Head  954   8.616   1.311  27.505
   57G1FFO Head  955   8.568   1.392  27.998
   57G1FFO Head  956   8.320   1.317  27.811
   57G1FFO link  957   8.360   1.369  27.545
   57G1FFO link  958   8.229   1.567  27.385
   57G1FFO Tail  959   8.408   1.743  27.164
   57G1FFO Tail  960   8.622   1.490  27.046
   57G1FFO Tail  961   8.691   1.442  26.795
   57G1FFO Tail  962   8.895   1.574  26.700
   57G1FFO Tail  963   9.071   1.730  26.606
   57G1FFO Tail  964   9.236   1.889  26.580
   57G1FFO Tail  965   8.639   1.875  27.367
   57G1FFO Tail  966   8.886   1.778  27.363
   57G1FFO Tail  967   8.926   1.614  27.556
   57G1FFO Tail  968   8.995   1.430  27.719
   57G1FFO Tail  969   9.071   1.227  27.821
   58G1FFO Head  970   6.412  -0.480  25.372
   58G1FFO Head  971   6.439  -0.549  25.064
   58G1FFO Head  972   6.774  -1.002  24.982
   58G1FFO Head  973   6.707  -0.737  24.809
   58G1FFO link  974   6.654  -0.501  24.910
   58G1FFO link  975   6.807  -0.255  24.896
   58G1FFO Tail  976   7.071  -0.173  24.714
   58G1FFO Tail  977   7.157   0.113  24.862
   58G1FFO Tail  978   7.136   0.124  25.119
   58G1FFO Tail  979   7.017   0.329  25.230
   58G1FFO Tail  980   6.874   0.531  25.314
   58G1FFO Tail  981   6.691   0.666  25.387
   58G1FFO Tail  982   6.905  -0.049  24.441
   58G1FFO Tail  983   7.035   0.127  24.274
   58G1FFO Tail  984   7.206   0.292  24.386
   58G1FFO Tail  985   7.397   0.416  24.501
   58G1FFO Tail  986   7.589   0.526  24.550
   59G1FFO Head  987   8.679  -1.644  25.410
   59G1FFO Head  988   8.740  -1.957  25.377
   59G1FFO Head  989   8.820  -2.529  25.293
   59G1FFO Head  990   8.923  -2.260  25.159
   59G1FFO link  991   8.786  -2.047  25.132
   59G1FFO link  992   8.791  -1.882  24.902
   59G1FFO Tail  993   9.079  -1.733  24.807
   59G1FFO Tail  994   9.104  -1.503  25.071
   59G1FFO Tail  995   9.045  -1.248  25.052
   59G1FFO Tail  996   8.815  -1.169  25.145
   59G1FFO Tail  997   8.597  -1.107  25.260
   59G1FFO Tail  998   8.420  -0.996  25.369
   59G1FFO Tail  999   8.957  -1.507  24.554
   59G1FFO Tail 1000   8.752  -1.349  24.630
   59G1FFO Tail 1001   8.509  -1.417  24.547
   59G1FFO Tail 1002   8.265  -1.429  24.465
   59G1FFO Tail 1003   8.044  -1.392  24.415
   60G1FFO Head 1004   9.303   0.593  23.198
   60G1FFO Head 1005   9.359   0.857  23.196
   60G1FFO Head 1006   9.927   0.997  23.413
   60G1FFO Head 1007   9.771   0.850  23.212
   60G1FFO link 1008   9.568   0.972  23.124
   60G1FFO link 1009   9.599   1.142  22.893
   60G1FFO Tail 1010   9.899   1.239  22.787
   60G1FFO Tail 1011  10.086   0.963  22.905
   60G1FFO Tail 1012  10.018   0.709  22.835
   60G1FFO Tail 1013   9.775   0.660  22.796
   60G1FFO Tail 1014   9.522   0.647  22.781
   60G1FFO Tail 1015   9.299   0.704  22.800
   60G1FFO Tail 1016   9.976   1.450  23.048
   60G1FFO Tail 1017   9.881   1.408  23.289
   60G1FFO Tail 1018   9.630   1.381  23.314
   60G1FFO Tail 1019   9.389   1.298  23.345
   60G1FFO Tail 1020   9.178   1.272  23.430
   61G1FFO Head 1021   4.925   3.127  24.430
   61G1FFO Head 1022   5.225   3.263  24.340
   61G1FFO Head 1023   4.997   3.656  24.233
   61G1FFO Head 1024   5.207   3.656  24.461
   61G1FFO link 1025   5.326   3.444  24.498
   61G1FFO link 1026   5.450   3.363  24.743
   61G1FFO Tail 1027   5.602   3.547  24.964
   61G1FFO Tail 1028   5.701   3.811  24.753
   61G1FFO Tail 1029   5.969   3.845  24.721
   61G1FFO Tail 1030   6.110   3.679  24.576
   61G1FFO Tail 1031   6.277   3.524  24.471
   61G1FFO Tail 1032   6.393   3.387  24.318
   61G1FFO Tail 1033   5.918   3.402  24.992
   61G1FFO Tail 1034   6.068   3.526  25.155
   61G1FFO Tail 1035   6.047   3.788  25.184
   61G1FFO Tail 1036   6.065   4.039  25.215
   61G1FFO Tail 1037   6.011   4.270  25.256
   62G1FFO Head 1038   8.431   3.446  28.087
   62G1FFO Head 1039   8.669   3.618  28.064
   62G1FFO Head 1040   8.277   3.930  27.798
   62G1FFO Head 1041   8.545   3.790  27.712
   62G1FFO link 1042   8.743   3.747  27.866
   62G1FFO link 1043   9.010   3.803  27.816
   62G1FFO Tail 1044   9.065   4.089  27.644
   62G1FFO Tail 1045   8.741   4.230  27.687
   62G1FFO Tail 1046   8.568   4.286  27.497
   62G1FFO Tail 1047   8.488   4.087  27.348
   62G1FFO Tail 1048   8.446   3.861  27.226
   62G1FFO Tail 1049   8.416   3.637  27.176
   62G1FFO Tail 1050   9.039   3.998  27.322
   62G1FFO Tail 1051   8.930   3.769  27.245
   62G1FFO Tail 1052   9.059   3.583  27.107
   62G1FFO Tail 1053   9.211   3.430  26.964
   62G1FFO Tail 1054   9.327   3.250  26.872
   63G1FFO Head 1055  12.449   1.974  24.089
   63G1FFO Head 1056  12.386   1.703  23.957
   63G1FFO Head 1057  12.526   1.985  23.622
   63G1FFO Head 1058  12.232   1.869  23.638
   63G1FFO link 1059  12.179   1.693  23.791
   63G1FFO link 1060  11.933   1.556  23.798
   63G1FFO Tail 1061  11.718   1.549  23.536
   63G1FFO Tail 1062  11.796   1.826  23.336
   63G1FFO Tail 1063  11.868   2.026  23.487
   63G1FFO Tail 1064  11.751   2.256  23.482
   63G1FFO Tail 1065  11.647   2.486  23.464
   63G1FFO Tail 1066  11.604   2.711  23.443
   63G1FFO Tail 1067  11.434   1.635  23.720
   63G1FFO Tail 1068  11.420   1.862  23.875
   63G1FFO Tail 1069  11.643   1.965  23.931
   63G1FFO Tail 1070  11.858   2.039  24.023
   63G1FFO Tail 1071  12.068   2.131  24.063
   64G1FFO Head 1072  10.143   2.764  23.300
   64G1FFO Head 1073  10.092   2.449  23.317
   64G1FFO Head 1074  10.042   1.835  23.324
   64G1FFO Head 1075  10.016   2.077  23.128
   64G1FFO link 1076  10.169   2.266  23.137
   64G1FFO link 1077  10.440   2.239  23.077
   64G1FFO Tail 1078  10.684   2.126  23.283
   64G1FFO Tail 1079  10.502   2.012  23.538
   64G1FFO Tail 1080  10.372   2.195  23.677
   64G1FFO Tail 1081  10.110   2.156  23.704
   64G1FFO Tail 1082   9.854   2.155  23.733
   64G1FFO Tail 1083   9.618   2.119  23.724
   64G1FFO Tail 1084  10.779   2.438  23.428
   64G1FFO Tail 1085  10.919   2.444  23.643
   64G1FFO Tail 1086  11.110   2.610  23.648
   64G1FFO Tail 1087  11.261   2.812  23.673
   64G1FFO Tail 1088  11.367   3.019  23.740
   65G1FFO Head 1089   7.936   3.846  26.724
   65G1FFO Head 1090   7.717   4.025  26.642
   65G1FFO Head 1091   7.397   4.344  26.723
   65G1FFO Head 1092   7.629   4.391  26.510
   65G1FFO link 1093   7.790   4.195  26.469
   65G1FFO link 1094   8.028   4.212  26.317
   65G1FFO Tail 1095   8.012   4.104  26.022
   65G1FFO Tail 1096   7.713   3.902  26.042
   65G1FFO Tail 1097   7.731   3.635  26.045
   65G1FFO Tail 1098   7.884   3.508  26.206
   65G1FFO Tail 1099   8.027   3.377  26.382
   65G1FFO Tail 1100   8.155   3.209  26.482
   65G1FFO Tail 1101   8.237   3.844  26.056
   65G1FFO Tail 1102   8.449   3.873  26.207
   65G1FFO Tail 1103   8.426   3.956  26.445
   65G1FFO Tail 1104   8.376   4.061  26.669
   65G1FFO Tail 1105   8.370   4.124  26.892
   66G1FFO Head 1106   7.570   4.297  27.599
   66G1FFO Head 1107   7.746   4.044  27.513
   66G1FFO Head 1108   7.256   3.933  27.758
   66G1FFO Head 1109   7.444   3.731  27.551
   66G1FFO link 1110   7.603   3.856  27.405
   66G1FFO link 1111   7.687   3.731  27.164
   66G1FFO Tail 1112   8.013   3.661  27.116
   66G1FFO Tail 1113   7.996   3.310  27.044
   66G1FFO Tail 1114   8.215   3.192  26.949
   66G1FFO Tail 1115   8.191   2.950  26.873
   66G1FFO Tail 1116   8.134   2.704  26.848
   66G1FFO Tail 1117   8.038   2.496  26.783
   66G1FFO Tail 1118   8.077   3.598  27.465
   66G1FFO Tail 1119   8.299   3.465  27.545
   66G1FFO Tail 1120   8.349   3.242  27.426
   66G1FFO Tail 1121   8.439   3.035  27.327
   66G1FFO Tail 1122   8.559   2.880  27.199
   67G1FFO Head 1123   7.587   1.653  26.204
   67G1FFO Head 1124   7.370   1.501  26.002
   67G1FFO Head 1125   7.288   1.924  25.720
   67G1FFO Head 1126   7.507   1.706  25.692
   67G1FFO link 1127   7.427   1.479  25.760
   67G1FFO link 1128   7.547   1.238  25.671
   67G1FFO Tail 1129   7.484   1.135  25.372
   67G1FFO Tail 1130   7.401   0.792  25.406
   67G1FFO Tail 1131   7.161   0.737  25.500
   67G1FFO Tail 1132   7.011   0.930  25.598
   67G1FFO Tail 1133   6.824   1.071  25.698
   67G1FFO Tail 1134   6.620   1.164  25.791
   67G1FFO Tail 1135   7.802   1.104  25.217
   67G1FFO Tail 1136   7.890   1.264  25.025
   67G1FFO Tail 1137   8.092   1.194  24.874
   67G1FFO Tail 1138   8.263   1.169  24.689
   67G1FFO Tail 1139   8.454   1.147  24.557
   68G1FFO Head 1140   9.458   1.248  28.219
   68G1FFO Head 1141   9.411   1.570  28.141
   68G1FFO Head 1142   8.952   1.319  28.330
   68G1FFO Head 1143   8.990   1.596  28.145
   68G1FFO link 1144   9.197   1.666  28.006
   68G1FFO link 1145   9.213   1.917  27.868
   68G1FFO Tail 1146   9.461   1.949  27.645
   68G1FFO Tail 1147   9.298   2.099  27.402
   68G1FFO Tail 1148   9.352   2.341  27.318
   68G1FFO Tail 1149   9.493   2.383  27.095
   68G1FFO Tail 1150   9.650   2.455  26.911
   68G1FFO Tail 1151   9.783   2.479  26.721
   68G1FFO Tail 1152   9.440   1.623  27.539
   68G1FFO Tail 1153   9.506   1.437  27.713
   68G1FFO Tail 1154   9.723   1.438  27.845
   68G1FFO Tail 1155   9.936   1.480  27.988
   68G1FFO Tail 1156  10.132   1.446  28.113
   69G1FFO Head 1157   6.087   0.246  24.673
   69G1FFO Head 1158   6.270   0.520  24.726
   69G1FFO Head 1159   6.306   0.435  25.385
   69G1FFO Head 1160   6.248   0.422  25.126
   69G1FFO link 1161   6.333   0.601  24.953
   69G1FFO link 1162   6.554   0.777  25.007
   69G1FFO Tail 1163   6.483   1.079  25.106
   69G1FFO Tail 1164   6.778   1.215  25.236
   69G1FFO Tail 1165   7.027   1.138  25.175
   69G1FFO Tail 1166   7.034   0.911  25.048
   69G1FFO Tail 1167   7.037   0.714  24.891
   69G1FFO Tail 1168   7.067   0.591  24.702
   69G1FFO Tail 1169   6.324   0.989  25.414
   69G1FFO Tail 1170   6.078   0.900  25.403
   69G1FFO Tail 1171   5.888   1.059  25.484
   69G1FFO Tail 1172   5.674   1.179  25.554
   69G1FFO Tail 1173   5.458   1.237  25.613
   70G1FFO Head 1174   9.908   3.433  24.106
   70G1FFO Head 1175   9.768   3.207  24.221
   70G1FFO Head 1176  10.105   3.070  24.516
   70G1FFO Head 1177   9.847   3.153  24.621
   70G1FFO link 1178   9.679   3.233  24.481
   70G1FFO link 1179   9.409   3.323  24.533
   70G1FFO Tail 1180   9.316   3.635  24.478
   70G1FFO Tail 1181   9.035   3.590  24.289
   70G1FFO Tail 1182   9.028   3.621  24.034
   70G1FFO Tail 1183   9.007   3.868  23.948
   70G1FFO Tail 1184   9.020   4.119  23.901
   70G1FFO Tail 1185   9.011   4.353  23.883
   70G1FFO Tail 1186   9.554   3.757  24.247
   70G1FFO Tail 1187   9.467   3.878  24.028
   70G1FFO Tail 1188   9.499   4.132  23.963
   70G1FFO Tail 1189   9.552   4.371  23.923
   70G1FFO Tail 1190   9.593   4.596  23.950
   71G1FFO Head 1191   8.796   4.159  22.286
   71G1FFO Head 1192   8.879   4.073  22.548
   71G1FFO Head 1193   9.353   4.534  22.520
   71G1FFO Head 1194   9.241   4.262  22.505
   71G1FFO link 1195   9.071   4.211  22.679
   71G1FFO link 1196   9.087   4.248  22.965
   71G1FFO Tail 1197   9.385   4.240  23.127
   71G1FFO Tail 1198   9.456   3.924  23.079
   71G1FFO Tail 1199   9.690   3.833  23.154
   71G1FFO Tail 1200   9.886   3.995  23.189
   71G1FFO Tail 1201  10.076   4.173  23.225
   71G1FFO Tail 1202  10.245   4.334  23.187
   71G1FFO Tail 1203   9.295   4.197  23.463
   71G1FFO Tail 1204   9.273   3.936  23.532
   71G1FFO Tail 1205   9.488   3.800  23.602
   71G1FFO Tail 1206   9.712   3.693  23.644
   71G1FFO Tail 1207   9.933   3.612  23.635
   72G1FFO Head 1208   9.231   0.530  21.277
   72G1FFO Head 1209   9.364   0.466  21.559
   72G1FFO Head 1210   9.185   0.026  21.590
   72G1FFO Head 1211   9.071   0.256  21.723
   72G1FFO link 1212   9.227   0.442  21.784
   72G1FFO link 1213   9.178   0.647  21.970
   72G1FFO Tail 1214   9.367   0.709  22.232
   72G1FFO Tail 1215   9.375   0.399  22.404
   72G1FFO Tail 1216   9.562   0.219  22.346
   72G1FFO Tail 1217   9.781   0.236  22.491
   72G1FFO Tail 1218  10.011   0.265  22.603
   72G1FFO Tail 1219  10.218   0.347  22.676
   72G1FFO Tail 1220   9.060   0.847  22.381
   72G1FFO Tail 1221   8.914   1.047  22.278
   72G1FFO Tail 1222   8.872   1.037  22.021
   72G1FFO Tail 1223   8.862   1.055  21.762
   72G1FFO Tail 1224   8.836   1.016  21.529
   73G1FFO Head 1225   6.802   0.739  26.765
   73G1FFO Head 1226   6.823   0.671  26.518
   73G1FFO Head 1227   7.207   0.501  26.675
   73G1FFO Head 1228   7.233   0.670  26.452
   73G1FFO link 1229   7.004   0.761  26.356
   73G1FFO link 1230   7.009   0.946  26.145
   73G1FFO Tail 1231   7.273   1.041  25.968
   73G1FFO Tail 1232   7.388   0.702  25.904
   73G1FFO Tail 1233   7.531   0.575  26.084
   73G1FFO Tail 1234   7.760   0.672  26.156
   73G1FFO Tail 1235   7.968   0.751  26.270
   73G1FFO Tail 1236   8.184   0.757  26.357
   73G1FFO Tail 1237   7.457   1.111  26.249
   73G1FFO Tail 1238   7.346   1.132  26.497
   73G1FFO Tail 1239   7.399   1.338  26.631
   73G1FFO Tail 1240   7.446   1.564  26.721
   73G1FFO Tail 1241   7.453   1.761  26.842
   74G1FFO Head 1242   7.487  -1.643  24.564
   74G1FFO Head 1243   7.755  -1.568  24.689
   74G1FFO Head 1244   7.407  -1.487  25.020
   74G1FFO Head 1245   7.561  -1.287  24.922
   74G1FFO link 1246   7.776  -1.346  24.812
   74G1FFO link 1247   8.005  -1.195  24.833
   74G1FFO Tail 1248   7.997  -0.879  24.731
   74G1FFO Tail 1249   7.663  -0.831  24.710
   74G1FFO Tail 1250   7.563  -0.624  24.593
   74G1FFO Tail 1251   7.313  -0.617  24.555
   74G1FFO Tail 1252   7.066  -0.577  24.538
   74G1FFO Tail 1253   6.851  -0.505  24.490
   74G1FFO Tail 1254   8.079  -0.926  24.407
   74G1FFO Tail 1255   8.291  -0.814  24.310
   74G1FFO Tail 1256   8.505  -0.952  24.260
   74G1FFO Tail 1257   8.685  -1.107  24.208
   74G1FFO Tail 1258   8.814  -1.291  24.153
   75G1FFO Head 1259   9.829  -0.434  24.205
   75G1FFO Head 1260   9.769  -0.416  23.883
   75G1FFO Head 1261   9.570  -0.518  23.392
   75G1FFO Head 1262   9.542  -0.270  23.608
   75G1FFO link 1263   9.711  -0.191  23.762
   75G1FFO link 1264   9.795   0.072  23.799
   75G1FFO Tail 1265  10.065   0.198  23.664
   75G1FFO Tail 1266  10.227   0.341  23.929
   75G1FFO Tail 1267  10.315   0.590  23.912
   75G1FFO Tail 1268  10.570   0.631  23.878
   75G1FFO Tail 1269  10.803   0.673  23.800
   75G1FFO Tail 1270  11.030   0.729  23.783
   75G1FFO Tail 1271   9.913   0.467  23.534
   75G1FFO Tail 1272   9.644   0.488  23.559
   75G1FFO Tail 1273   9.547   0.727  23.602
   75G1FFO Tail 1274   9.488   0.967  23.671
   75G1FFO Tail 1275   9.511   1.195  23.733
   76G1FFO Head 1276   7.941   4.184  22.761
   76G1FFO Head 1277   8.050   4.237  23.043
   76G1FFO Head 1278   7.601   4.496  22.993
   76G1FFO Head 1279   7.661   4.297  23.248
   76G1FFO link 1280   7.896   4.170  23.261
   76G1FFO link 1281   7.983   4.034  23.489
   76G1FFO Tail 1282   7.863   3.767  23.619
   76G1FFO Tail 1283   8.005   3.532  23.429
   76G1FFO Tail 1284   7.863   3.319  23.353
   76G1FFO Tail 1285   7.647   3.385  23.226
   76G1FFO Tail 1286   7.416   3.445  23.129
   76G1FFO Tail 1287   7.230   3.549  23.027
   76G1FFO Tail 1288   7.537   3.809  23.502
   76G1FFO Tail 1289   7.371   3.626  23.555
   76G1FFO Tail 1290   7.141   3.657  23.467
   76G1FFO Tail 1291   6.922   3.675  23.332
   76G1FFO Tail 1292   6.728   3.764  23.227
   77G1FFO Head 1293   9.803   3.345  28.212
   77G1FFO Head 1294   9.468   3.397  28.280
   77G1FFO Head 1295   9.113   3.708  28.418
   77G1FFO Head 1296   9.112   3.564  28.160
   77G1FFO link 1297   9.297   3.420  28.077
   77G1FFO link 1298   9.396   3.448  27.815
   77G1FFO Tail 1299   9.245   3.522  27.535
   77G1FFO Tail 1300   9.275   3.216  27.404
   77G1FFO Tail 1301   9.048   3.078  27.364
   77G1FFO Tail 1302   9.022   2.990  27.125
   77G1FFO Tail 1303   9.016   2.868  26.901
   77G1FFO Tail 1304   8.939   2.758  26.707
   77G1FFO Tail 1305   9.500   3.669  27.356
   77G1FFO Tail 1306   9.496   3.682  27.091
   77G1FFO Tail 1307   9.430   3.912  27.001
   77G1FFO Tail 1308   9.359   4.148  26.959
   77G1FFO Tail 1309   9.224   4.341  26.924
   78G1FFO Head 1310  11.805   0.422  22.477
   78G1FFO Head 1311  11.613   0.308  22.709
   78G1FFO Head 1312  11.556   0.209  23.303
   78G1FFO Head 1313  11.689   0.370  23.078
   78G1FFO link 1314  11.521   0.458  22.890
   78G1FFO link 1315  11.249   0.525  22.933
   78G1FFO Tail 1316  11.172   0.833  22.982
   78G1FFO Tail 1317  10.904   0.765  23.213
   78G1FFO Tail 1318  10.922   0.584  23.382
   78G1FFO Tail 1319  10.879   0.339  23.326
   78G1FFO Tail 1320  10.804   0.095  23.301
   78G1FFO Tail 1321  10.769  -0.130  23.229
   78G1FFO Tail 1322  10.964   0.877  22.695
   78G1FFO Tail 1323  10.793   1.077  22.688
   78G1FFO Tail 1324  10.668   1.123  22.900
   78G1FFO Tail 1325  10.514   1.169  23.080
   78G1FFO Tail 1326  10.351   1.155  23.241
   79G1FFO Head 1327   6.407  -0.391  24.561
   79G1FFO Head 1328   6.488  -0.670  24.430
   79G1FFO Head 1329   6.402  -0.362  23.864
   79G1FFO Head 1330   6.588  -0.441  24.110
   79G1FFO link 1331   6.599  -0.679  24.205
   79G1FFO link 1332   6.639  -0.923  24.075
   79G1FFO Tail 1333   6.914  -1.081  24.165
   79G1FFO Tail 1334   6.872  -1.063  24.518
   79G1FFO Tail 1335   7.074  -1.141  24.674
   79G1FFO Tail 1336   7.288  -1.180  24.538
   79G1FFO Tail 1337   7.498  -1.181  24.397
   79G1FFO Tail 1338   7.672  -1.104  24.257
   79G1FFO Tail 1339   7.141  -0.843  24.099
   79G1FFO Tail 1340   7.389  -0.835  24.197
   79G1FFO Tail 1341   7.562  -0.679  24.082
   79G1FFO Tail 1342   7.716  -0.505  23.992
   79G1FFO Tail 1343   7.802  -0.323  23.871
   80G1FFO Head 1344   9.878   3.379  25.919
   80G1FFO Head 1345  10.040   3.617  25.869
   80G1FFO Head 1346  10.371   3.222  25.760
   80G1FFO Head 1347  10.365   3.546  25.669
   80G1FFO link 1348  10.166   3.667  25.657
   80G1FFO link 1349  10.113   3.907  25.501
   80G1FFO Tail 1350   9.893   4.116  25.619
   80G1FFO Tail 1351   9.920   4.095  25.973
   80G1FFO Tail 1352  10.114   3.970  26.097
   80G1FFO Tail 1353  10.346   3.985  25.983
   80G1FFO Tail 1354  10.588   3.977  25.923
   80G1FFO Tail 1355  10.823   3.944  25.898
   80G1FFO Tail 1356   9.588   3.957  25.536
   80G1FFO Tail 1357   9.574   3.694  25.541
   80G1FFO Tail 1358   9.758   3.536  25.443
   80G1FFO Tail 1359   9.928   3.363  25.371
   80G1FFO Tail 1360  10.052   3.155  25.347
   81G1FFO Head 1361  11.447   3.547  27.328
   81G1FFO Head 1362  11.578   3.303  27.205
   81G1FFO Head 1363  10.955   2.944  27.209
   81G1FFO Head 1364  11.202   3.124  27.287
   81G1FFO link 1365  11.455   3.069  27.186
   81G1FFO link 1366  11.543   2.830  27.075
   81G1FFO Tail 1367  11.693   2.848  26.778
   81G1FFO Tail 1368  12.027   2.821  26.825
   81G1FFO Tail 1369  12.151   2.608  26.934
   81G1FFO Tail 1370  12.033   2.508  27.134
   81G1FFO Tail 1371  11.943   2.374  27.337
   81G1FFO Tail 1372  11.815   2.253  27.489
   81G1FFO Tail 1373  11.694   3.182  26.740
   81G1FFO Tail 1374  11.521   3.282  26.556
   81G1FFO Tail 1375  11.627   3.400  26.345
   81G1FFO Tail 1376  11.748   3.460  26.125
   81G1FFO Tail 1377  11.876   3.440  25.929
   82G1FFO Head 1378  11.035   0.341  26.361
   82G1FFO Head 1379  11.111   0.542  26.143
   82G1FFO Head 1380  11.566   0.514  25.649
   82G1FFO Head 1381  11.367   0.652  25.827
   82G1FFO link 1382  11.211   0.476  25.902
   82G1FFO link 1383  11.204   0.206  25.783
   82G1FFO Tail 1384  10.903   0.080  25.708
   82G1FFO Tail 1385  10.778   0.356  25.530
   82G1FFO Tail 1386  10.860   0.586  25.607
   82G1FFO Tail 1387  11.059   0.674  25.475
   82G1FFO Tail 1388  11.264   0.773  25.359
   82G1FFO Tail 1389  11.483   0.822  25.286
   82G1FFO Tail 1390  10.737   0.137  25.989
   82G1FFO Tail 1391  10.511   0.019  26.011
   82G1FFO Tail 1392  10.357   0.089  26.211
   82G1FFO Tail 1393  10.210   0.107  26.420
   82G1FFO Tail 1394  10.067   0.190  26.585
   83G1FFO Head 1395  10.595  -0.045  26.977
   83G1FFO Head 1396  10.482   0.129  26.842
   83G1FFO Head 1397  10.979  -0.113  26.600
   83G1FFO Head 1398  10.676  -0.014  26.519
   83G1FFO link 1399  10.569   0.190  26.604
   83G1FFO link 1400  10.585   0.448  26.484
   83G1FFO Tail 1401  10.399   0.680  26.632
   83G1FFO Tail 1402  10.283   0.552  26.945
   83G1FFO Tail 1403  10.436   0.594  27.153
   83G1FFO Tail 1404  10.425   0.804  27.302
   83G1FFO Tail 1405  10.438   0.992  27.480
   83G1FFO Tail 1406  10.408   1.188  27.600
   83G1FFO Tail 1407  10.105   0.638  26.413
   83G1FFO Tail 1408  10.096   0.720  26.161
   83G1FFO Tail 1409   9.917   0.898  26.111
   83G1FFO Tail 1410   9.784   1.103  26.044
   83G1FFO Tail 1411   9.620   1.239  25.970
   84G1FFO Head 1412  10.217  -1.474  23.858
   84G1FFO Head 1413  10.158  -1.181  23.735
   84G1FFO Head 1414  10.226  -1.596  23.407
   84G1FFO Head 1415  10.256  -1.279  23.348
   84G1FFO link 1416  10.286  -1.092  23.529
   84G1FFO link 1417  10.272  -0.827  23.440
   84G1FFO Tail 1418   9.982  -0.683  23.451
   84G1FFO Tail 1419  10.052  -0.357  23.564
   84G1FFO Tail 1420  10.141  -0.283  23.799
   84G1FFO Tail 1421  10.347  -0.127  23.791
   84G1FFO Tail 1422  10.537   0.049  23.797
   84G1FFO Tail 1423  10.689   0.222  23.751
   84G1FFO Tail 1424   9.818  -0.813  23.753
   84G1FFO Tail 1425   9.948  -0.814  23.987
   84G1FFO Tail 1426  10.198  -0.750  24.007
   84G1FFO Tail 1427  10.439  -0.677  23.977
   84G1FFO Tail 1428  10.668  -0.657  23.918
   85G1FFO Head 1429   7.133   1.858  26.181
   85G1FFO Head 1430   7.350   1.939  26.432
   85G1FFO Head 1431   7.998   2.148  26.430
   85G1FFO Head 1432   7.765   1.994  26.448
   85G1FFO link 1433   7.561   2.075  26.347
   85G1FFO link 1434   7.560   2.172  26.071
   85G1FFO Tail 1435   7.487   2.464  25.938
   85G1FFO Tail 1436   7.559   2.395  25.605
   85G1FFO Tail 1437   7.526   2.534  25.379
   85G1FFO Tail 1438   7.617   2.779  25.366
   85G1FFO Tail 1439   7.679   3.029  25.381
   85G1FFO Tail 1440   7.792   3.221  25.437
   85G1FFO Tail 1441   7.802   2.613  26.014
   85G1FFO Tail 1442   8.004   2.474  26.096
   85G1FFO Tail 1443   8.249   2.552  26.034
   85G1FFO Tail 1444   8.468   2.603  25.927
   85G1FFO Tail 1445   8.659   2.717  25.854
   86G1FFO Head 1446   7.532   4.653  24.151
   86G1FFO Head 1447   7.481   4.388  24.241
   86G1FFO Head 1448   7.123   4.613  23.844
   86G1FFO Head 1449   7.130   4.315  23.987
   86G1FFO link 1450   7.256   4.254  24.205
   86G1FFO link 1451   7.190   4.000  24.334
   86G1FFO Tail 1452   7.400   3.750  24.348
   86G1FFO Tail 1453   7.279   3.559  24.107
   86G1FFO Tail 1454   7.225   3.300  24.146
   86G1FFO Tail 1455   7.022   3.260  24.290
   86G1FFO Tail 1456   6.834   3.247  24.451
   86G1FFO Tail 1457   6.693   3.283  24.624
   86G1FFO Tail 1458   7.246   3.594  24.598
   86G1FFO Tail 1459   7.356   3.369  24.688
   86G1FFO Tail 1460   7.462   3.202  24.512
   86G1FFO Tail 1461   7.572   3.005  24.376
   86G1FFO Tail 1462   7.679   2.877  24.219
   87G1FFO Head 1463   9.653   2.915  28.577
   87G1FFO Head 1464   9.298   2.902  28.655
   87G1FFO Head 1465   9.019   2.606  28.940
   87G1FFO Head 1466   8.975   2.667  28.645
   87G1FFO link 1467   9.169   2.729  28.496
   87G1FFO link 1468   9.248   2.615  28.241
   87G1FFO Tail 1469   9.062   2.668  27.970
   87G1FFO Tail 1470   9.225   2.917  27.801
   87G1FFO Tail 1471   9.486   2.963  27.813
   87G1FFO Tail 1472   9.615   2.802  27.970
   87G1FFO Tail 1473   9.783   2.651  28.099
   87G1FFO Tail 1474   9.912   2.570  28.275
   87G1FFO Tail 1475   8.810   2.844  28.132
   87G1FFO Tail 1476   8.783   3.101  28.114
   87G1FFO Tail 1477   8.784   3.214  27.878
   87G1FFO Tail 1478   8.815   3.340  27.662
   87G1FFO Tail 1479   8.787   3.442  27.452
   88G1FFO Head 1480   8.613   4.588  24.023
   88G1FFO Head 1481   8.581   4.307  23.867
   88G1FFO Head 1482   8.243   4.641  23.716
   88G1FFO Head 1483   8.282   4.370  23.639
   88G1FFO link 1484   8.357   4.202  23.804
   88G1FFO link 1485   8.342   3.923  23.738
   88G1FFO Tail 1486   8.465   3.823  23.454
   88G1FFO Tail 1487   8.798   3.938  23.477
   88G1FFO Tail 1488   8.882   4.172  23.520
   88G1FFO Tail 1489   8.755   4.368  23.416
   88G1FFO Tail 1490   8.591   4.540  23.309
   88G1FFO Tail 1491   8.405   4.659  23.225
   88G1FFO Tail 1492   8.389   4.080  23.236
   88G1FFO Tail 1493   8.545   4.153  23.054
   88G1FFO Tail 1494   8.496   4.163  22.801
   88G1FFO Tail 1495   8.406   4.173  22.565
   88G1FFO Tail 1496   8.345   4.117  22.344
   89G1FFO Head 1497  10.936   1.754  22.545
   89G1FFO Head 1498  11.052   1.472  22.475
   89G1FFO Head 1499  11.601   1.711  22.437
   89G1FFO Head 1500  11.447   1.439  22.421
   89G1FFO link 1501  11.266   1.382  22.590
   89G1FFO link 1502  11.263   1.224  22.826
   89G1FFO Tail 1503  11.087   1.231  23.103
   89G1FFO Tail 1504  10.883   1.525  23.052
   89G1FFO Tail 1505  10.930   1.748  23.183
   89G1FFO Tail 1506  10.929   1.767  23.444
   89G1FFO Tail 1507  10.918   1.747  23.695
   89G1FFO Tail 1508  10.977   1.718  23.922
   89G1FFO Tail 1509  11.308   1.411  23.292
   89G1FFO Tail 1510  11.522   1.519  23.160
   89G1FFO Tail 1511  11.468   1.701  22.992
   89G1FFO Tail 1512  11.372   1.884  22.836
   89G1FFO Tail 1513  11.303   1.995  22.650
   90G1FFO Head 1514   6.795   4.173  22.693
   90G1FFO Head 1515   6.985   3.923  22.676
   90G1FFO Head 1516   6.881   4.072  22.205
   90G1FFO Head 1517   7.134   3.916  22.296
   90G1FFO link 1518   7.199   3.892  22.539
   90G1FFO link 1519   7.407   3.718  22.605
   90G1FFO Tail 1520   7.374   3.372  22.571
   90G1FFO Tail 1521   7.674   3.273  22.713
   90G1FFO Tail 1522   7.840   3.439  22.833
   90G1FFO Tail 1523   8.062   3.351  22.917
   90G1FFO Tail 1524   8.291   3.281  23.021
   90G1FFO Tail 1525   8.464   3.185  23.138
   90G1FFO Tail 1526   7.465   3.325  22.253
   90G1FFO Tail 1527   7.712   3.250  22.200
   90G1FFO Tail 1528   7.871   3.438  22.119
   90G1FFO Tail 1529   7.989   3.630  22.007
   90G1FFO Tail 1530   8.094   3.837  21.966
   91G1FFO Head 1531   9.380   1.937  24.696
   91G1FFO Head 1532   9.292   1.641  24.873
   91G1FFO Head 1533   9.615   1.830  25.169
   91G1FFO Head 1534   9.603   1.501  25.060
   91G1FFO link 1535   9.440   1.442  24.881
   91G1FFO link 1536   9.356   1.180  24.813
   91G1FFO Tail 1537   9.441   0.931  24.997
   91G1FFO Tail 1538   9.171   0.732  24.901
   91G1FFO Tail 1539   9.209   0.472  24.864
   91G1FFO Tail 1540   9.282   0.335  25.066
   91G1FFO Tail 1541   9.358   0.165  25.239
   91G1FFO Tail 1542   9.493   0.016  25.377
   91G1FFO Tail 1543   9.293   1.019  25.284
   91G1FFO Tail 1544   9.392   1.115  25.511
   91G1FFO Tail 1545   9.444   0.939  25.688
   91G1FFO Tail 1546   9.537   0.754  25.842
   91G1FFO Tail 1547   9.650   0.579  25.947
   92G1FFO Head 1548   7.194   0.736  27.114
   92G1FFO Head 1549   7.202   0.911  26.864
   92G1FFO Head 1550   6.628   1.150  27.129
   92G1FFO Head 1551   6.946   1.115  27.070
   92G1FFO link 1552   7.036   1.130  26.848
   92G1FFO link 1553   6.918   1.220  26.603
   92G1FFO Tail 1554   6.974   1.512  26.469
   92G1FFO Tail 1555   6.668   1.672  26.477
   92G1FFO Tail 1556   6.620   1.893  26.601
   92G1FFO Tail 1557   6.383   1.922  26.696
   92G1FFO Tail 1558   6.148   1.908  26.789
   92G1FFO Tail 1559   5.948   1.933  26.907
   92G1FFO Tail 1560   6.958   1.415  26.118
   92G1FFO Tail 1561   6.872   1.575  25.924
   92G1FFO Tail 1562   6.991   1.539  25.688
   92G1FFO Tail 1563   7.103   1.530  25.460
   92G1FFO Tail 1564   7.213   1.584  25.258
   93G1FFO Head 1565  10.714   0.633  25.003
   93G1FFO Head 1566  10.622   0.459  24.784
   93G1FFO Head 1567  10.549   0.929  24.567
   93G1FFO Head 1568  10.360   0.761  24.719
   93G1FFO link 1569  10.374   0.504  24.692
   93G1FFO link 1570  10.156   0.332  24.656
   93G1FFO Tail 1571   9.859   0.446  24.589
   93G1FFO Tail 1572   9.934   0.541  24.264
   93G1FFO Tail 1573   9.821   0.454  24.051
   93G1FFO Tail 1574   9.567   0.488  24.024
   93G1FFO Tail 1575   9.313   0.539  24.030
   93G1FFO Tail 1576   9.104   0.663  24.054
   93G1FFO Tail 1577   9.880   0.771  24.712
   93G1FFO Tail 1578   9.968   0.971  24.562
   93G1FFO Tail 1579   9.847   1.191  24.596
   93G1FFO Tail 1580   9.748   1.425  24.603
   93G1FFO Tail 1581   9.672   1.639  24.571
   94G1FFO Head 1582  10.929   4.101  27.144
   94G1FFO Head 1583  11.146   4.182  26.935
   94G1FFO Head 1584  11.272   4.737  26.717
   94G1FFO Head 1585  11.228   4.458  26.648
   94G1FFO link 1586  11.041   4.309  26.741
   94G1FFO link 1587  10.802   4.242  26.619
   94G1FFO Tail 1588  10.757   4.078  26.324
   94G1FFO Tail 1589  10.614   3.801  26.410
   94G1FFO Tail 1590  10.724   3.565  26.384
   94G1FFO Tail 1591  10.729   3.393  26.577
   94G1FFO Tail 1592  10.720   3.198  26.745
   94G1FFO Tail 1593  10.677   2.989  26.838
   94G1FFO Tail 1594  11.091   4.031  26.261
   94G1FFO Tail 1595  11.180   3.829  26.121
   94G1FFO Tail 1596  11.171   3.607  26.244
   94G1FFO Tail 1597  11.126   3.376  26.341
   94G1FFO Tail 1598  11.129   3.189  26.464
   95G1FFO Head 1599  10.242   5.574  26.105
   95G1FFO Head 1600   9.942   5.410  26.113
   95G1FFO Head 1601   9.524   5.703  26.120
   95G1FFO Head 1602   9.608   5.469  25.878
   95G1FFO link 1603   9.822   5.339  25.895
   95G1FFO link 1604  10.009   5.255  25.687
   95G1FFO Tail 1605  10.251   5.021  25.743
   95G1FFO Tail 1606  10.324   4.908  25.422
   95G1FFO Tail 1607  10.137   4.853  25.247
   95G1FFO Tail 1608   9.948   5.037  25.206
   95G1FFO Tail 1609   9.799   5.244  25.203
   95G1FFO Tail 1610   9.626   5.401  25.187
   95G1FFO Tail 1611  10.058   4.755  25.826
   95G1FFO Tail 1612   9.864   4.693  25.645
   95G1FFO Tail 1613   9.701   4.869  25.573
   95G1FFO Tail 1614   9.526   5.063  25.551
   95G1FFO Tail 1615   9.358   5.219  25.476
   96G1FFO Head 1616  10.136   5.647  25.216
   96G1FFO Head 1617  10.309   5.371  25.189
   96G1FFO Head 1618  10.255   5.582  24.593
   96G1FFO Head 1619  10.170   5.312  24.801
   96G1FFO link 1620  10.336   5.232  24.973
   96G1FFO link 1621  10.529   5.035  24.924
   96G1FFO Tail 1622  10.443   4.759  24.759
   96G1FFO Tail 1623  10.102   4.827  24.722
   96G1FFO Tail 1624   9.895   4.649  24.776
   96G1FFO Tail 1625   9.824   4.603  25.013
   96G1FFO Tail 1626   9.751   4.507  25.235
   96G1FFO Tail 1627   9.647   4.374  25.395
   96G1FFO Tail 1628  10.416   4.529  25.022
   96G1FFO Tail 1629  10.200   4.451  25.172
   96G1FFO Tail 1630  10.247   4.399  25.425
   96G1FFO Tail 1631  10.311   4.385  25.664
   96G1FFO Tail 1632  10.421   4.389  25.877
   97G1FFO Head 1633   5.788   0.638  24.871
   97G1FFO Head 1634   5.918   0.854  25.011
   97G1FFO Head 1635   5.431   0.976  25.214
   97G1FFO Head 1636   5.633   1.128  25.022
   97G1FFO link 1637   5.863   1.105  25.009
   97G1FFO link 1638   6.076   1.285  25.084
   97G1FFO Tail 1639   6.099   1.468  25.357
   97G1FFO Tail 1640   6.056   1.788  25.227
   97G1FFO Tail 1641   6.257   1.950  25.216
   97G1FFO Tail 1642   6.395   1.954  24.995
   97G1FFO Tail 1643   6.501   1.986  24.766
   97G1FFO Tail 1644   6.551   2.051  24.548
   97G1FFO Tail 1645   6.437   1.459  25.433
   97G1FFO Tail 1646   6.594   1.668  25.372
   97G1FFO Tail 1647   6.595   1.885  25.509
   97G1FFO Tail 1648   6.544   2.091  25.654
   97G1FFO Tail 1649   6.432   2.266  25.764
   98G1FFO Head 1650  12.871   1.230  23.758
   98G1FFO Head 1651  12.741   1.061  23.963
   98G1FFO Head 1652  12.798   1.584  24.203
   98G1FFO Head 1653  12.564   1.372  24.094
   98G1FFO link 1654  12.572   1.134  24.158
   98G1FFO link 1655  12.349   0.964  24.257
   98G1FFO Tail 1656  12.070   1.118  24.371
   98G1FFO Tail 1657  11.846   0.986  24.144
   98G1FFO Tail 1658  11.597   1.068  24.170
   98G1FFO Tail 1659  11.455   1.108  23.954
   98G1FFO Tail 1660  11.340   1.121  23.725
   98G1FFO Tail 1661  11.212   1.067  23.528
   98G1FFO Tail 1662  12.115   1.427  24.256
   98G1FFO Tail 1663  11.959   1.633  24.264
   98G1FFO Tail 1664  11.700   1.579  24.278
   98G1FFO Tail 1665  11.449   1.534  24.245
   98G1FFO Tail 1666  11.222   1.529  24.184
   99G1FFO Head 1667   8.161   2.489  28.101
   99G1FFO Head 1668   7.921   2.428  27.972
   99G1FFO Head 1669   7.513   2.779  28.283
   99G1FFO Head 1670   7.739   2.794  28.104
   99G1FFO link 1671   7.769   2.632  27.894
   99G1FFO link 1672   7.604   2.647  27.653
   99G1FFO Tail 1673   7.627   2.419  27.422
   99G1FFO Tail 1674   7.811   2.170  27.601
   99G1FFO Tail 1675   7.964   1.999  27.480
   99G1FFO Tail 1676   8.089   2.080  27.269
   99G1FFO Tail 1677   8.244   2.134  27.075
   99G1FFO Tail 1678   8.354   2.173  26.867
   99G1FFO Tail 1679   7.880   2.529  27.214
   99G1FFO Tail 1680   8.000   2.755  27.260
   99G1FFO Tail 1681   7.886   2.955  27.392
   99G1FFO Tail 1682   7.762   3.155  27.475
   99G1FFO Tail 1683   7.693   3.338  27.615
  100G1FFO Head 1684  11.500   0.426  24.507
  100G1FFO Head 1685  11.458   0.698  24.440
  100G1FFO Head 1686  11.101   0.898  24.854
  100G1FFO Head 1687  11.389   0.831  24.822
  100G1FFO link 1688  11.501   0.884  24.621
  100G1FFO link 1689  11.691   1.111  24.614
  100G1FFO Tail 1690  11.714   1.338  24.853
  100G1FFO Tail 1691  11.462   1.569  24.742
  100G1FFO Tail 1692  11.216   1.481  24.727
  100G1FFO Tail 1693  11.170   1.289  24.551
  100G1FFO Tail 1694  11.137   1.100  24.390
  100G1FFO Tail 1695  11.176   0.924  24.240
  100G1FFO Tail 1696  11.967   1.525  24.741
  100G1FFO Tail 1697  11.960   1.793  24.755
  100G1FFO Tail 1698  11.793   1.926  24.611
  100G1FFO Tail 1699  11.607   2.021  24.471
  100G1FFO Tail 1700  11.470   2.088  24.295
  101G1FFO Head 1701   9.433  -0.448  27.711
  101G1FFO Head 1702   9.392  -0.171  27.626
  101G1FFO Head 1703   9.214   0.158  27.977
  101G1FFO Head 1704   9.496   0.130  27.897
  101G1FFO link 1705   9.581   0.009  27.676
  101G1FFO link 1706   9.855   0.006  27.579
  101G1FFO Tail 1707  10.066   0.248  27.665
  101G1FFO Tail 1708   9.820   0.481  27.807
  101G1FFO Tail 1709   9.611   0.544  27.661
  101G1FFO Tail 1710   9.517   0.385  27.483
  101G1FFO Tail 1711   9.393   0.218  27.336
  101G1FFO Tail 1712   9.281   0.119  27.154
  101G1FFO Tail 1713  10.093   0.390  27.360
  101G1FFO Tail 1714   9.903   0.536  27.244
  101G1FFO Tail 1715   9.870   0.776  27.323
  101G1FFO Tail 1716   9.874   1.001  27.448
  101G1FFO Tail 1717   9.939   1.225  27.519
  102G1FFO Head 1718   9.227   3.396  25.561
  102G1FFO Head 1719   9.232   3.207  25.280
  102G1FFO Head 1720   9.325   3.685  25.190
  102G1FFO Head 1721   9.158   3.500  24.974
  102G1FFO link 1722   9.195   3.256  25.009
  102G1FFO link 1723   9.130   3.044  24.826
  102G1FFO Tail 1724   9.351   2.816  24.752
  102G1FFO Tail 1725   9.589   2.879  24.979
  102G1FFO Tail 1726   9.618   3.106  25.108
  102G1FFO Tail 1727   9.611   3.330  24.987
  102G1FFO Tail 1728   9.648   3.555  24.851
  102G1FFO Tail 1729   9.637   3.767  24.761
  102G1FFO Tail 1730   9.488   2.878  24.425
  102G1FFO Tail 1731   9.606   2.702  24.259
  102G1FFO Tail 1732   9.852   2.771  24.181
  102G1FFO Tail 1733  10.056   2.879  24.078
  102G1FFO Tail 1734  10.257   2.916  23.965
  103G1FFO Head 1735   7.200   1.959  23.751
  103G1FFO Head 1736   7.293   1.841  23.972
  103G1FFO Head 1737   7.410   2.462  24.274
  103G1FFO Head 1738   7.255   2.197  24.183
  103G1FFO link 1739   7.362   1.962  24.185
  103G1FFO link 1740   7.545   1.861  24.370
  103G1FFO Tail 1741   7.872   1.860  24.346
  103G1FFO Tail 1742   7.962   1.565  24.506
  103G1FFO Tail 1743   8.063   1.385  24.346
  103G1FFO Tail 1744   7.929   1.167  24.314
  103G1FFO Tail 1745   7.768   0.968  24.284
  103G1FFO Tail 1746   7.647   0.782  24.194
  103G1FFO Tail 1747   7.983   2.087  24.607
  103G1FFO Tail 1748   8.073   1.972  24.838
  103G1FFO Tail 1749   7.903   1.840  24.983
  103G1FFO Tail 1750   7.739   1.709  25.135
  103G1FFO Tail 1751   7.629   1.601  25.311
  104G1FFO Head 1752  12.543   1.624  25.929
  104G1FFO Head 1753  12.410   1.863  25.927
  104G1FFO Head 1754  12.013   1.746  26.500
  104G1FFO Head 1755  12.219   1.844  26.318
  104G1FFO link 1756  12.169   1.884  26.065
  104G1FFO link 1757  11.942   1.966  25.929
  104G1FFO Tail 1758  11.878   1.805  25.647
  104G1FFO Tail 1759  11.636   1.585  25.753
  104G1FFO Tail 1760  11.603   1.385  25.590
  104G1FFO Tail 1761  11.404   1.220  25.637
  104G1FFO Tail 1762  11.209   1.075  25.709
  104G1FFO Tail 1763  11.053   0.942  25.827
  104G1FFO Tail 1764  12.150   1.603  25.630
  104G1FFO Tail 1765  12.128   1.391  25.483
  104G1FFO Tail 1766  12.005   1.194  25.577
  104G1FFO Tail 1767  11.916   0.987  25.689
  104G1FFO Tail 1768  11.846   0.801  25.813
  105G1FFO Head 1769  11.403   1.284  25.192
  105G1FFO Head 1770  11.108   1.188  25.254
  105G1FFO Head 1771  10.713   1.212  24.982
  105G1FFO Head 1772  10.720   1.336  25.277
  105G1FFO link 1773  10.933   1.330  25.415
  105G1FFO link 1774  11.014   1.548  25.581
  105G1FFO Tail 1775  10.819   1.776  25.726
  105G1FFO Tail 1776  10.647   1.554  25.944
  105G1FFO Tail 1777  10.720   1.288  25.967
  105G1FFO Tail 1778  10.674   1.160  25.748
  105G1FFO Tail 1779  10.666   0.999  25.554
  105G1FFO Tail 1780  10.663   0.918  25.338
  105G1FFO Tail 1781  10.552   1.778  25.491
  105G1FFO Tail 1782  10.472   2.019  25.419
  105G1FFO Tail 1783  10.582   2.116  25.207
  105G1FFO Tail 1784  10.725   2.196  25.015
  105G1FFO Tail 1785  10.914   2.260  24.884
  106G1FFO Head 1786   8.871  -0.652  23.854
  106G1FFO Head 1787   8.927  -0.701  23.592
  106G1FFO Head 1788   9.263  -0.452  23.025
  106G1FFO Head 1789   9.093  -0.607  23.214
  106G1FFO link 1790   9.020  -0.527  23.435
  106G1FFO link 1791   9.048  -0.259  23.520
  106G1FFO Tail 1792   8.787  -0.086  23.610
  106G1FFO Tail 1793   8.924   0.236  23.639
  106G1FFO Tail 1794   9.166   0.255  23.746
  106G1FFO Tail 1795   9.254   0.072  23.913
  106G1FFO Tail 1796   9.365  -0.109  24.050
  106G1FFO Tail 1797   9.481  -0.238  24.211
  106G1FFO Tail 1798   8.782  -0.153  23.947
  106G1FFO Tail 1799   8.810   0.035  24.131
  106G1FFO Tail 1800   8.906  -0.010  24.363
  106G1FFO Tail 1801   9.005  -0.050  24.606
  106G1FFO Tail 1802   9.102  -0.021  24.823
  107G1FFO Head 1803   6.013   4.717  23.716
  107G1FFO Head 1804   5.863   4.666  23.975
  107G1FFO Head 1805   5.505   5.063  24.170
  107G1FFO Head 1806   5.471   4.805  23.973
  107G1FFO link 1807   5.597   4.597  24.015
  107G1FFO link 1808   5.484   4.334  24.026
  107G1FFO Tail 1809   5.678   4.077  23.944
  107G1FFO Tail 1810   5.819   3.977  24.227
  107G1FFO Tail 1811   5.964   4.145  24.348
  107G1FFO Tail 1812   5.892   4.384  24.405
  107G1FFO Tail 1813   5.856   4.635  24.440
  107G1FFO Tail 1814   5.819   4.871  24.398
  107G1FFO Tail 1815   5.939   4.242  23.839
  107G1FFO Tail 1816   6.152   4.288  23.993
  107G1FFO Tail 1817   6.393   4.313  23.896
  107G1FFO Tail 1818   6.602   4.349  23.766
  107G1FFO Tail 1819   6.755   4.379  23.592
  108G1FFO Head 1820  10.247   3.233  21.675
  108G1FFO Head 1821  10.068   3.201  21.884
  108G1FFO Head 1822  10.504   3.499  22.225
  108G1FFO Head 1823  10.254   3.506  22.050
  108G1FFO link 1824  10.056   3.354  22.093
  108G1FFO link 1825   9.832   3.412  22.257
  108G1FFO Tail 1826   9.643   3.185  22.366
  108G1FFO Tail 1827   9.886   3.036  22.548
  108G1FFO Tail 1828  10.037   2.839  22.468
  108G1FFO Tail 1829  10.207   2.892  22.269
  108G1FFO Tail 1830  10.384   2.979  22.104
  108G1FFO Tail 1831  10.554   3.105  21.998
  108G1FFO Tail 1832   9.654   2.964  22.101
  108G1FFO Tail 1833   9.580   2.706  22.116
  108G1FFO Tail 1834   9.734   2.552  22.239
  108G1FFO Tail 1835   9.920   2.396  22.323
  108G1FFO Tail 1836  10.066   2.220  22.343
  109G1FFO Head 1837   9.608   1.064  22.296
  109G1FFO Head 1838   9.750   1.355  22.427
  109G1FFO Head 1839   9.386   1.433  22.011
  109G1FFO Head 1840   9.562   1.633  22.161
  109G1FFO link 1841   9.629   1.580  22.410
  109G1FFO link 1842   9.567   1.741  22.636
  109G1FFO Tail 1843   9.773   1.832  22.858
  109G1FFO Tail 1844   9.566   1.878  23.134
  109G1FFO Tail 1845   9.632   2.021  23.348
  109G1FFO Tail 1846   9.660   2.274  23.317
  109G1FFO Tail 1847   9.693   2.532  23.311
  109G1FFO Tail 1848   9.685   2.769  23.351
  109G1FFO Tail 1849   9.811   2.169  22.745
  109G1FFO Tail 1850   9.605   2.314  22.664
  109G1FFO Tail 1851   9.587   2.550  22.760
  109G1FFO Tail 1852   9.586   2.765  22.898
  109G1FFO Tail 1853   9.599   2.986  22.979
  110G1FFO Head 1854  12.736   2.858  26.157
  110G1FFO Head 1855  12.606   2.795  25.914
  110G1FFO Head 1856  12.340   2.602  26.372
  110G1FFO Head 1857  12.264   2.787  26.119
  110G1FFO link 1858  12.361   2.768  25.886
  110G1FFO link 1859  12.204   2.760  25.646
  110G1FFO Tail 1860  11.991   2.532  25.545
  110G1FFO Tail 1861  11.765   2.755  25.398
  110G1FFO Tail 1862  11.687   2.716  25.154
  110G1FFO Tail 1863  11.583   2.487  25.082
  110G1FFO Tail 1864  11.509   2.269  24.975
  110G1FFO Tail 1865  11.440   2.046  24.931
  110G1FFO Tail 1866  11.794   2.493  25.831
  110G1FFO Tail 1867  11.529   2.572  25.857
  110G1FFO Tail 1868  11.402   2.588  25.628
  110G1FFO Tail 1869  11.255   2.581  25.421
  110G1FFO Tail 1870  11.099   2.537  25.248
  111G1FFO Head 1871   7.472  -0.925  22.542
  111G1FFO Head 1872   7.298  -1.001  22.762
  111G1FFO Head 1873   6.813  -0.984  23.082
  111G1FFO Head 1874   7.129  -0.918  23.145
  111G1FFO link 1875   7.313  -0.858  22.964
  111G1FFO link 1876   7.398  -0.585  22.940
  111G1FFO Tail 1877   7.723  -0.505  23.009
  111G1FFO Tail 1878   7.847  -0.761  22.827
  111G1FFO Tail 1879   7.834  -1.015  22.896
  111G1FFO Tail 1880   7.660  -1.052  23.088
  111G1FFO Tail 1881   7.502  -1.151  23.260
  111G1FFO Tail 1882   7.371  -1.294  23.392
  111G1FFO Tail 1883   7.729  -0.651  23.326
  111G1FFO Tail 1884   7.868  -0.559  23.529
  111G1FFO Tail 1885   8.019  -0.358  23.488
  111G1FFO Tail 1886   8.191  -0.172  23.509
  111G1FFO Tail 1887   8.375  -0.043  23.569
  112G1FFO Head 1888   5.047   2.218  24.937
  112G1FFO Head 1889   5.352   2.175  24.990
  112G1FFO Head 1890   5.619   1.982  25.312
  112G1FFO Head 1891   5.636   1.902  25.020
  112G1FFO link 1892   5.498   2.003  24.859
  112G1FFO link 1893   5.396   1.895  24.621
  112G1FFO Tail 1894   5.607   1.766  24.404
  112G1FFO Tail 1895   5.752   2.024  24.256
  112G1FFO Tail 1896   5.702   2.095  24.008
  112G1FFO Tail 1897   5.741   1.908  23.829
  112G1FFO Tail 1898   5.762   1.741  23.642
  112G1FFO Tail 1899   5.828   1.627  23.448
  112G1FFO Tail 1900   5.405   1.672  24.140
  112G1FFO Tail 1901   5.140   1.645  24.137
  112G1FFO Tail 1902   5.009   1.695  24.365
  112G1FFO Tail 1903   4.892   1.709  24.591
  112G1FFO Tail 1904   4.767   1.702  24.788
  113G1FFO Head 1905   6.981  -0.205  25.875
  113G1FFO Head 1906   7.081  -0.021  25.625
  113G1FFO Head 1907   6.729   0.267  25.672
  113G1FFO Head 1908   7.024   0.366  25.711
  113G1FFO link 1909   7.206   0.209  25.632
  113G1FFO link 1910   7.437   0.302  25.513
  113G1FFO Tail 1911   7.611   0.081  25.350
  113G1FFO Tail 1912   7.617   0.237  25.025
  113G1FFO Tail 1913   7.444   0.422  24.997
  113G1FFO Tail 1914   7.535   0.656  24.933
  113G1FFO Tail 1915   7.621   0.870  24.833
  113G1FFO Tail 1916   7.647   1.066  24.701
  113G1FFO Tail 1917   7.377  -0.185  25.324
  113G1FFO Tail 1918   7.280  -0.247  25.090
  113G1FFO Tail 1919   7.234  -0.499  25.036
  113G1FFO Tail 1920   7.211  -0.753  25.035
  113G1FFO Tail 1921   7.262  -0.980  25.022
  114G1FFO Head 1922   7.262   3.313  25.419
  114G1FFO Head 1923   7.366   3.267  25.195
  114G1FFO Head 1924   6.949   3.419  24.994
  114G1FFO Head 1925   7.050   3.117  25.011
  114G1FFO link 1926   7.284   3.063  25.055
  114G1FFO link 1927   7.450   2.906  24.889
  114G1FFO Tail 1928   7.748   3.004  24.804
  114G1FFO Tail 1929   7.932   2.806  25.018
  114G1FFO Tail 1930   8.116   2.916  25.172
  114G1FFO Tail 1931   8.301   3.077  25.067
  114G1FFO Tail 1932   8.506   3.223  25.003
  114G1FFO Tail 1933   8.653   3.404  24.971
  114G1FFO Tail 1934   7.775   3.320  24.933
  114G1FFO Tail 1935   8.005   3.439  24.983
  114G1FFO Tail 1936   8.085   3.507  25.221
  114G1FFO Tail 1937   8.150   3.595  25.454
  114G1FFO Tail 1938   8.279   3.660  25.636
  115G1FFO Head 1939   8.056  -0.456  24.659
  115G1FFO Head 1940   7.964  -0.332  24.399
  115G1FFO Head 1941   7.622   0.220  24.107
  115G1FFO Head 1942   7.764  -0.060  24.191
  115G1FFO link 1943   7.929  -0.061  24.374
  115G1FFO link 1944   7.956   0.121  24.605
  115G1FFO Tail 1945   8.174   0.077  24.832
  115G1FFO Tail 1946   8.274   0.401  24.874
  115G1FFO Tail 1947   8.084   0.575  24.934
  115G1FFO Tail 1948   7.959   0.564  25.158
  115G1FFO Tail 1949   7.879   0.583  25.392
  115G1FFO Tail 1950   7.771   0.609  25.603
  115G1FFO Tail 1951   8.414   0.000  24.627
  115G1FFO Tail 1952   8.357  -0.163  24.420
  115G1FFO Tail 1953   8.539  -0.342  24.394
  115G1FFO Tail 1954   8.728  -0.504  24.318
  115G1FFO Tail 1955   8.872  -0.696  24.286
  116G1FFO Head 1956   8.233   2.040  27.845
  116G1FFO Head 1957   8.543   2.076  27.748
  116G1FFO Head 1958   8.730   2.395  28.223
  116G1FFO Head 1959   8.579   2.436  27.964
  116G1FFO link 1960   8.659   2.304  27.759
  116G1FFO link 1961   8.926   2.338  27.692
  116G1FFO Tail 1962   9.021   2.594  27.520
  116G1FFO Tail 1963   8.777   2.824  27.585
  116G1FFO Tail 1964   8.577   2.753  27.737
  116G1FFO Tail 1965   8.396   2.908  27.804
  116G1FFO Tail 1966   8.196   3.065  27.843
  116G1FFO Tail 1967   8.050   3.245  27.853
  116G1FFO Tail 1968   8.910   2.480  27.202
  116G1FFO Tail 1969   8.684   2.340  27.177
  116G1FFO Tail 1970   8.486   2.418  27.329
  116G1FFO Tail 1971   8.316   2.505  27.498
  116G1FFO Tail 1972   8.128   2.593  27.610
  117G1FFO Head 1973   8.818   0.572  21.527
  117G1FFO Head 1974   8.755   0.611  21.821
  117G1FFO Head 1975   8.220   0.442  21.865
  117G1FFO Head 1976   8.531   0.273  21.845
  117G1FFO link 1977   8.738   0.381  21.954
  117G1FFO link 1978   8.772   0.396  22.231
  117G1FFO Tail 1979   8.530   0.535  22.398
  117G1FFO Tail 1980   8.462   0.789  22.166
  117G1FFO Tail 1981   8.396   1.032  22.231
  117G1FFO Tail 1982   8.509   1.152  22.424
  117G1FFO Tail 1983   8.624   1.305  22.592
  117G1FFO Tail 1984   8.650   1.484  22.742
  117G1FFO Tail 1985   8.664   0.701  22.650
  117G1FFO Tail 1986   8.855   0.592  22.810
  117G1FFO Tail 1987   8.782   0.577  23.051
  117G1FFO Tail 1988   8.675   0.567  23.276
  117G1FFO Tail 1989   8.511   0.542  23.443
  118G1FFO Head 1990   7.099   2.607  21.754
  118G1FFO Head 1991   7.255   2.567  21.973
  118G1FFO Head 1992   7.116   3.121  21.878
  118G1FFO Head 1993   7.082   2.936  22.093
  118G1FFO link 1994   7.273   2.761  22.170
  118G1FFO link 1995   7.508   2.775  22.328
  118G1FFO Tail 1996   7.514   2.848  22.653
  118G1FFO Tail 1997   7.773   2.620  22.732
  118G1FFO Tail 1998   7.754   2.373  22.652
  118G1FFO Tail 1999   7.572   2.316  22.480
  118G1FFO Tail 2000   7.377   2.240  22.334
  118G1FFO Tail 2001   7.228   2.152  22.176
  118G1FFO Tail 2002   7.282   2.643  22.757
  118G1FFO Tail 2003   7.337   2.413  22.874
  118G1FFO Tail 2004   7.510   2.420  23.061
  118G1FFO Tail 2005   7.706   2.452  23.214
  118G1FFO Tail 2006   7.851   2.454  23.403
  119G1FFO Head 2007  10.086   5.396  27.130
  119G1FFO Head 2008   9.918   5.228  26.986
  119G1FFO Head 2009  10.241   5.573  26.592
  119G1FFO Head 2010  10.247   5.217  26.720
  119G1FFO link 2011  10.042   5.095  26.802
  119G1FFO link 2012  10.014   4.834  26.765
  119G1FFO Tail 2013  10.170   4.568  26.883
  119G1FFO Tail 2014  10.381   4.535  26.586
  119G1FFO Tail 2015  10.298   4.407  26.373
  119G1FFO Tail 2016  10.060   4.488  26.285
  119G1FFO Tail 2017   9.811   4.545  26.261
  119G1FFO Tail 2018   9.574   4.535  26.229
  119G1FFO Tail 2019   9.948   4.319  26.804
  119G1FFO Tail 2020   9.699   4.376  26.870
  119G1FFO Tail 2021   9.578   4.578  26.772
  119G1FFO Tail 2022   9.492   4.779  26.642
  119G1FFO Tail 2023   9.365   4.938  26.530
  120G1FFO Head 2024   9.856   1.014  26.833
  120G1FFO Head 2025   9.943   1.080  26.562
  120G1FFO Head 2026   9.435   1.427  26.668
  120G1FFO Head 2027   9.591   1.248  26.451
  120G1FFO link 2028   9.840   1.281  26.428
  120G1FFO link 2029   9.973   1.510  26.342
  120G1FFO Tail 2030  10.259   1.482  26.162
  120G1FFO Tail 2031  10.159   1.403  25.841
  120G1FFO Tail 2032  10.318   1.395  25.637
  120G1FFO Tail 2033  10.271   1.206  25.466
  120G1FFO Tail 2034  10.215   1.020  25.303
  120G1FFO Tail 2035  10.134   0.818  25.207
  120G1FFO Tail 2036  10.374   1.169  26.247
  120G1FFO Tail 2037  10.539   1.146  26.456
  120G1FFO Tail 2038  10.428   1.111  26.687
  120G1FFO Tail 2039  10.313   1.112  26.907
  120G1FFO Tail 2040  10.161   1.113  27.074
  121G1FFO Head 2041   5.792   4.681  25.285
  121G1FFO Head 2042   5.899   4.756  24.976
  121G1FFO Head 2043   5.623   4.344  24.882
  121G1FFO Head 2044   5.939   4.379  24.852
  121G1FFO link 2045   6.066   4.572  24.879
  121G1FFO link 2046   6.305   4.640  24.732
  121G1FFO Tail 2047   6.520   4.408  24.646
  121G1FFO Tail 2048   6.392   4.266  24.356
  121G1FFO Tail 2049   6.446   4.013  24.301
  121G1FFO Tail 2050   6.298   3.866  24.146
  121G1FFO Tail 2051   6.141   3.722  24.009
  121G1FFO Tail 2052   5.950   3.609  23.919
  121G1FFO Tail 2053   6.392   4.166  24.885
  121G1FFO Tail 2054   6.414   3.911  24.879
  121G1FFO Tail 2055   6.574   3.816  24.686
  121G1FFO Tail 2056   6.752   3.739  24.517
  121G1FFO Tail 2057   6.866   3.705  24.316
  122G1FFO Head 2058   6.343   3.207  26.945
  122G1FFO Head 2059   6.666   3.241  27.043
  122G1FFO Head 2060   6.516   2.657  27.031
  122G1FFO Head 2061   6.809   2.813  26.996
  122G1FFO link 2062   6.820   3.041  27.127
  122G1FFO link 2063   7.029   3.093  27.315
  122G1FFO Tail 2064   7.311   2.924  27.345
  122G1FFO Tail 2065   7.503   3.064  27.076
  122G1FFO Tail 2066   7.703   2.950  26.940
  122G1FFO Tail 2067   7.650   2.768  26.767
  122G1FFO Tail 2068   7.633   2.583  26.598
  122G1FFO Tail 2069   7.620   2.456  26.408
  122G1FFO Tail 2070   7.253   2.593  27.245
  122G1FFO Tail 2071   7.302   2.511  27.008
  122G1FFO Tail 2072   7.486   2.329  26.965
  122G1FFO Tail 2073   7.670   2.176  26.895
  122G1FFO Tail 2074   7.824   2.007  26.867
  123G1FFO Head 2075   8.532   2.621  24.214
  123G1FFO Head 2076   8.554   2.864  24.027
  123G1FFO Head 2077   8.751   3.298  24.562
  123G1FFO Head 2078   8.569   3.089  24.380
  123G1FFO link 2079   8.580   3.115  24.130
  123G1FFO link 2080   8.712   3.335  24.003
  123G1FFO Tail 2081   8.570   3.568  23.834
  123G1FFO Tail 2082   8.237   3.544  24.000
  123G1FFO Tail 2083   8.126   3.735  24.148
  123G1FFO Tail 2084   7.891   3.830  24.094
  123G1FFO Tail 2085   7.643   3.883  24.041
  123G1FFO Tail 2086   7.449   3.983  23.966
  123G1FFO Tail 2087   8.514   3.397  23.550
  123G1FFO Tail 2088   8.331   3.220  23.552
  123G1FFO Tail 2089   8.248   3.121  23.776
  123G1FFO Tail 2090   8.155   3.072  24.011
  123G1FFO Tail 2091   8.142   3.001  24.233
  124G1FFO Head 2092  12.768   2.794  24.154
  124G1FFO Head 2093  12.481   2.825  24.354
  124G1FFO Head 2094  12.679   2.589  25.009
  124G1FFO Head 2095  12.608   2.760  24.732
  124G1FFO link 2096  12.472   2.649  24.542
  124G1FFO link 2097  12.246   2.463  24.589
  124G1FFO Tail 2098  11.996   2.438  24.372
  124G1FFO Tail 2099  11.982   2.770  24.259
  124G1FFO Tail 2100  11.760   2.880  24.182
  124G1FFO Tail 2101  11.758   2.990  23.953
  124G1FFO Tail 2102  11.802   3.059  23.706
  124G1FFO Tail 2103  11.776   3.095  23.480
  124G1FFO Tail 2104  11.709   2.472  24.585
  124G1FFO Tail 2105  11.497   2.609  24.506
  124G1FFO Tail 2106  11.266   2.498  24.520
  124G1FFO Tail 2107  11.021   2.447  24.536
  124G1FFO Tail 2108  10.782   2.449  24.520
  125G1FFO Head 2109  10.909  -0.902  24.955
  125G1FFO Head 2110  10.804  -1.155  24.944
  125G1FFO Head 2111  11.135  -1.121  24.531
  125G1FFO Head 2112  10.875  -1.252  24.558
  125G1FFO link 2113  10.695  -1.198  24.723
  125G1FFO link 2114  10.435  -1.121  24.662
  125G1FFO Tail 2115  10.336  -0.961  24.368
  125G1FFO Tail 2116  10.101  -0.742  24.509
  125G1FFO Tail 2117   9.845  -0.802  24.508
  125G1FFO Tail 2118   9.682  -0.641  24.627
  125G1FFO Tail 2119   9.541  -0.517  24.800
  125G1FFO Tail 2120   9.400  -0.372  24.929
  125G1FFO Tail 2121  10.135  -1.185  24.235
  125G1FFO Tail 2122   9.894  -1.239  24.334
  125G1FFO Tail 2123   9.872  -1.269  24.587
  125G1FFO Tail 2124   9.911  -1.297  24.833
  125G1FFO Tail 2125   9.961  -1.285  25.061
  126G1FFO Head 2126  10.485   3.170  24.818
  126G1FFO Head 2127  10.755   3.106  24.927
  126G1FFO Head 2128  11.252   2.805  24.896
  126G1FFO Head 2129  10.956   2.735  24.907
  126G1FFO link 2130  10.805   2.879  25.073
  126G1FFO link 2131  10.657   2.760  25.289
  126G1FFO Tail 2132  10.781   2.592  25.543
  126G1FFO Tail 2133  10.508   2.435  25.669
  126G1FFO Tail 2134  10.300   2.389  25.516
  126G1FFO Tail 2135  10.075   2.454  25.617
  126G1FFO Tail 2136   9.841   2.546  25.662
  126G1FFO Tail 2137   9.643   2.641  25.749
  126G1FFO Tail 2138  10.841   2.793  25.801
  126G1FFO Tail 2139  11.080   2.895  25.834
  126G1FFO Tail 2140  11.185   2.847  26.074
  126G1FFO Tail 2141  11.307   2.834  26.293
  126G1FFO Tail 2142  11.363   2.777  26.516
  127G1FFO Head 2143  11.834   3.591  23.380
  127G1FFO Head 2144  11.509   3.449  23.401
  127G1FFO Head 2145  11.149   3.890  23.046
  127G1FFO Head 2146  11.171   3.624  23.207
  127G1FFO link 2147  11.291   3.611  23.416
  127G1FFO link 2148  11.174   3.708  23.653
  127G1FFO Tail 2149  11.196   3.598  23.953
  127G1FFO Tail 2150  11.016   3.291  23.900
  127G1FFO Tail 2151  10.918   3.257  23.666
  127G1FFO Tail 2152  10.757   3.048  23.629
  127G1FFO Tail 2153  10.630   2.832  23.626
  127G1FFO Tail 2154  10.452   2.668  23.619
  127G1FFO Tail 2155  10.949   3.755  24.141
  127G1FFO Tail 2156  10.854   3.661  24.365
  127G1FFO Tail 2157  10.892   3.407  24.425
  127G1FFO Tail 2158  10.881   3.158  24.460
  127G1FFO Tail 2159  10.917   2.935  24.531
  128G1FFO Head 2160   7.932   1.621  27.790
  128G1FFO Head 2161   7.687   1.597  27.627
  128G1FFO Head 2162   7.254   1.890  28.110
  128G1FFO Head 2163   7.508   1.834  27.922
  128G1FFO link 2164   7.468   1.747  27.672
  128G1FFO link 2165   7.205   1.661  27.595
  128G1FFO Tail 2166   7.016   1.790  27.359
  128G1FFO Tail 2167   7.036   1.538  27.143
  128G1FFO Tail 2168   6.992   1.592  26.886
  128G1FFO Tail 2169   7.020   1.837  26.813
  128G1FFO Tail 2170   7.065   2.078  26.748
  128G1FFO Tail 2171   7.133   2.260  26.637
  128G1FFO Tail 2172   7.232   2.030  27.249
  128G1FFO Tail 2173   7.483   2.021  27.318
  128G1FFO Tail 2174   7.634   1.817  27.246
  128G1FFO Tail 2175   7.771   1.633  27.149
  128G1FFO Tail 2176   7.847   1.478  26.999
  129G1FFO Head 2177   8.463   0.106  27.556
  129G1FFO Head 2178   8.485   0.356  27.347
  129G1FFO Head 2179   8.031   0.135  27.253
  129G1FFO Head 2180   8.216   0.183  27.049
  129G1FFO link 2181   8.412   0.319  27.106
  129G1FFO link 2182   8.578   0.399  26.894
  129G1FFO Tail 2183   8.530   0.341  26.572
  129G1FFO Tail 2184   8.634   0.639  26.429
  129G1FFO Tail 2185   8.891   0.671  26.416
  129G1FFO Tail 2186   8.973   0.865  26.566
  129G1FFO Tail 2187   9.107   1.029  26.706
  129G1FFO Tail 2188   9.233   1.126  26.887
  129G1FFO Tail 2189   8.187   0.325  26.575
  129G1FFO Tail 2190   8.077   0.239  26.362
  129G1FFO Tail 2191   8.236   0.154  26.172
  129G1FFO Tail 2192   8.360   0.095  25.962
  129G1FFO Tail 2193   8.437   0.064  25.736
  130G1FFO Head 2194   7.703   4.412  25.219
  130G1FFO Head 2195   7.783   4.309  24.905
  130G1FFO Head 2196   7.185   4.456  24.591
  130G1FFO Head 2197   7.471   4.472  24.672
  130G1FFO link 2198   7.607   4.266  24.744
  130G1FFO link 2199   7.553   4.006  24.638
  130G1FFO Tail 2200   7.638   3.728  24.775
  130G1FFO Tail 2201   7.864   3.885  24.992
  130G1FFO Tail 2202   7.791   3.947  25.232
  130G1FFO Tail 2203   7.968   4.032  25.399
  130G1FFO Tail 2204   8.126   4.133  25.586
  130G1FFO Tail 2205   8.309   4.185  25.720
  130G1FFO Tail 2206   7.861   3.613  24.532
  130G1FFO Tail 2207   7.847   3.389  24.422
  130G1FFO Tail 2208   7.782   3.372  24.169
  130G1FFO Tail 2209   7.753   3.349  23.921
  130G1FFO Tail 2210   7.656   3.316  23.709
  131G1FFO Head 2211   6.214   2.963  26.557
  131G1FFO Head 2212   6.274   2.861  26.237
  131G1FFO Head 2213   6.026   3.334  25.881
  131G1FFO Head 2214   6.045   3.126  26.036
  131G1FFO link 2215   6.264   2.986  26.010
  131G1FFO link 2216   6.490   3.059  25.857
  131G1FFO Tail 2217   6.472   3.281  25.627
  131G1FFO Tail 2218   6.242   3.142  25.388
  131G1FFO Tail 2219   5.988   3.167  25.412
  131G1FFO Tail 2220   5.863   2.940  25.487
  131G1FFO Tail 2221   5.735   2.730  25.512
  131G1FFO Tail 2222   5.652   2.510  25.491
  131G1FFO Tail 2223   6.751   3.188  25.443
  131G1FFO Tail 2224   6.912   2.991  25.530
  131G1FFO Tail 2225   7.028   2.832  25.351
  131G1FFO Tail 2226   7.139   2.662  25.194
  131G1FFO Tail 2227   7.205   2.469  25.088
  132G1FFO Head 2228   9.724   5.112  27.467
  132G1FFO Head 2229   9.912   4.883  27.537
  132G1FFO Head 2230  10.412   4.919  27.026
  132G1FFO Head 2231  10.198   4.974  27.241
  132G1FFO link 2232  10.064   4.769  27.358
  132G1FFO link 2233  10.141   4.495  27.322
  132G1FFO Tail 2234  10.017   4.255  27.491
  132G1FFO Tail 2235   9.762   4.179  27.287
  132G1FFO Tail 2236   9.523   4.092  27.370
  132G1FFO Tail 2237   9.490   4.046  27.625
  132G1FFO Tail 2238   9.471   3.982  27.875
  132G1FFO Tail 2239   9.389   3.942  28.093
  132G1FFO Tail 2240   9.860   4.454  27.722
  132G1FFO Tail 2241   9.645   4.599  27.689
  132G1FFO Tail 2242   9.437   4.520  27.820
  132G1FFO Tail 2243   9.252   4.408  27.960
  132G1FFO Tail 2244   9.070   4.285  28.020
  133G1FFO Head 2245   5.932   2.457  26.417
  133G1FFO Head 2246   6.214   2.310  26.417
  133G1FFO Head 2247   6.173   2.270  27.147
  133G1FFO Head 2248   6.205   2.386  26.818
  133G1FFO link 2249   6.377   2.324  26.645
  133G1FFO link 2250   6.661   2.382  26.656
  133G1FFO Tail 2251   6.811   2.551  26.428
  133G1FFO Tail 2252   6.735   2.858  26.517
  133G1FFO Tail 2253   6.775   3.058  26.343
  133G1FFO Tail 2254   6.587   3.235  26.314
  133G1FFO Tail 2255   6.383   3.381  26.263
  133G1FFO Tail 2256   6.208   3.531  26.300
  133G1FFO Tail 2257   6.577   2.487  26.173
  133G1FFO Tail 2258   6.602   2.623  25.948
  133G1FFO Tail 2259   6.852   2.679  25.875
  133G1FFO Tail 2260   7.097   2.685  25.799
  133G1FFO Tail 2261   7.310   2.740  25.734
  134G1FFO Head 2262   8.503   0.361  23.855
  134G1FFO Head 2263   8.461   0.666  23.847
  134G1FFO Head 2264   9.022   0.828  23.467
  134G1FFO Head 2265   8.877   0.769  23.728
  134G1FFO link 2266   8.632   0.827  23.732
  134G1FFO link 2267   8.520   1.017  23.543
  134G1FFO Tail 2268   8.326   1.253  23.676
  134G1FFO Tail 2269   8.550   1.513  23.677
  134G1FFO Tail 2270   8.540   1.720  23.511
  134G1FFO Tail 2271   8.497   1.951  23.620
  134G1FFO Tail 2272   8.426   2.183  23.673
  134G1FFO Tail 2273   8.378   2.408  23.669
  134G1FFO Tail 2274   8.334   1.193  24.021
  134G1FFO Tail 2275   8.528   1.276  24.168
  134G1FFO Tail 2276   8.524   1.498  24.309
  134G1FFO Tail 2277   8.465   1.701  24.445
  134G1FFO Tail 2278   8.440   1.918  24.518
  135G1FFO Head 2279  11.347   2.597  22.064
  135G1FFO Head 2280  11.082   2.452  22.022
  135G1FFO Head 2281  10.957   2.924  22.054
  135G1FFO Head 2282  10.854   2.704  22.246
  135G1FFO link 2283  10.910   2.449  22.207
  135G1FFO link 2284  10.895   2.223  22.377
  135G1FFO Tail 2285  10.691   2.215  22.626
  135G1FFO Tail 2286  10.889   2.106  22.890
  135G1FFO Tail 2287  11.096   2.236  22.989
  135G1FFO Tail 2288  11.175   2.172  23.229
  135G1FFO Tail 2289  11.274   2.152  23.470
  135G1FFO Tail 2290  11.387   2.201  23.668
  135G1FFO Tail 2291  10.481   1.934  22.558
  135G1FFO Tail 2292  10.284   1.872  22.727
  135G1FFO Tail 2293  10.378   1.776  22.947
  135G1FFO Tail 2294  10.488   1.702  23.162
  135G1FFO Tail 2295  10.515   1.601  23.382
  136G1FFO Head 2296   9.190   0.394  26.191
  136G1FFO Head 2297   9.083   0.640  26.036
  136G1FFO Head 2298   8.735   0.915  25.501
  136G1FFO Head 2299   8.948   0.823  25.703
  136G1FFO link 2300   8.909   0.620  25.874
  136G1FFO link 2301   8.687   0.443  25.879
  136G1FFO Tail 2302   8.438   0.571  26.043
  136G1FFO Tail 2303   8.187   0.553  25.817
  136G1FFO Tail 2304   8.209   0.392  25.610
  136G1FFO Tail 2305   8.388   0.435  25.436
  136G1FFO Tail 2306   8.559   0.522  25.269
  136G1FFO Tail 2307   8.745   0.609  25.163
  136G1FFO Tail 2308   8.524   0.912  26.033
  136G1FFO Tail 2309   8.755   0.989  26.142
  136G1FFO Tail 2310   8.937   1.133  26.001
  136G1FFO Tail 2311   9.124   1.282  25.910
  136G1FFO Tail 2312   9.254   1.428  25.786
  137G1FFO Head 2313   9.921  -0.647  25.915
  137G1FFO Head 2314  10.214  -0.614  25.854
  137G1FFO Head 2315  10.701  -0.629  25.782
  137G1FFO Head 2316  10.545  -0.358  25.806
  137G1FFO link 2317  10.315  -0.378  25.873
  137G1FFO link 2318  10.124  -0.166  25.887
  137G1FFO Tail 2319   9.888  -0.117  25.661
  137G1FFO Tail 2320   9.974   0.188  25.546
  137G1FFO Tail 2321   9.844   0.401  25.642
  137G1FFO Tail 2322   9.988   0.621  25.664
  137G1FFO Tail 2323  10.146   0.812  25.715
  137G1FFO Tail 2324  10.321   0.943  25.807
  137G1FFO Tail 2325   9.611  -0.050  25.848
  137G1FFO Tail 2326   9.534   0.195  25.883
  137G1FFO Tail 2327   9.353   0.289  25.730
  137G1FFO Tail 2328   9.174   0.424  25.604
  137G1FFO Tail 2329   9.057   0.535  25.428
  138G1FFO Head 2330   5.786   3.572  25.485
  138G1FFO Head 2331   5.868   3.833  25.608
  138G1FFO Head 2332   5.869   4.323  25.709
  138G1FFO Head 2333   6.126   4.151  25.680
  138G1FFO link 2334   6.117   3.893  25.620
  138G1FFO link 2335   6.336   3.723  25.541
  138G1FFO Tail 2336   6.539   3.806  25.282
  138G1FFO Tail 2337   6.491   3.483  25.123
  138G1FFO Tail 2338   6.395   3.454  24.881
  138G1FFO Tail 2339   6.333   3.206  24.817
  138G1FFO Tail 2340   6.259   2.968  24.787
  138G1FFO Tail 2341   6.228   2.732  24.799
  138G1FFO Tail 2342   6.850   3.746  25.437
  138G1FFO Tail 2343   7.007   3.945  25.512
  138G1FFO Tail 2344   7.251   3.858  25.554
  138G1FFO Tail 2345   7.496   3.771  25.565
  138G1FFO Tail 2346   7.692   3.636  25.545
  139G1FFO Head 2347   8.045   4.272  22.038
  139G1FFO Head 2348   7.919   4.206  22.293
  139G1FFO Head 2349   7.468   3.756  21.992
  139G1FFO Head 2350   7.566   3.968  22.211
  139G1FFO link 2351   7.803   3.968  22.309
  139G1FFO link 2352   7.868   3.764  22.492
  139G1FFO Tail 2353   8.183   3.711  22.519
  139G1FFO Tail 2354   8.223   3.388  22.446
  139G1FFO Tail 2355   8.437   3.234  22.450
  139G1FFO Tail 2356   8.619   3.264  22.258
  139G1FFO Tail 2357   8.815   3.257  22.094
  139G1FFO Tail 2358   8.999   3.308  21.961
  139G1FFO Tail 2359   8.216   3.771  22.849
  139G1FFO Tail 2360   8.055   3.787  23.061
  139G1FFO Tail 2361   7.799   3.835  23.027
  139G1FFO Tail 2362   7.554   3.918  23.002
  139G1FFO Tail 2363   7.333   3.974  23.051
  140G1FFO Head 2364   9.959   1.909  25.504
  140G1FFO Head 2365   9.887   2.079  25.760
  140G1FFO Head 2366  10.406   2.024  25.927
  140G1FFO Head 2367  10.152   1.865  25.981
  140G1FFO link 2368   9.921   1.962  25.990
  140G1FFO link 2369   9.739   1.944  26.209
  140G1FFO Tail 2370   9.749   2.132  26.474
  140G1FFO Tail 2371   9.690   1.895  26.740
  140G1FFO Tail 2372   9.566   1.949  26.957
  140G1FFO Tail 2373   9.371   1.803  27.052
  140G1FFO Tail 2374   9.197   1.628  27.105
  140G1FFO Tail 2375   9.082   1.432  27.178
  140G1FFO Tail 2376   9.408   2.271  26.434
  140G1FFO Tail 2377   9.282   2.369  26.625
  140G1FFO Tail 2378   9.075   2.241  26.725
  140G1FFO Tail 2379   8.907   2.099  26.861
  140G1FFO Tail 2380   8.789   1.917  26.960
  141G1FFO Head 2381   6.169   0.497  22.468
  141G1FFO Head 2382   6.362   0.506  22.664
  141G1FFO Head 2383   5.851   0.500  22.930
  141G1FFO Head 2384   6.147   0.509  23.000
  141G1FFO link 2385   6.325   0.645  22.887
  141G1FFO link 2386   6.415   0.910  22.909
  141G1FFO Tail 2387   6.421   1.145  22.670
  141G1FFO Tail 2388   6.458   0.915  22.391
  141G1FFO Tail 2389   6.654   0.750  22.393
  141G1FFO Tail 2390   6.752   0.674  22.617
  141G1FFO Tail 2391   6.832   0.571  22.833
  141G1FFO Tail 2392   6.968   0.460  22.986
  141G1FFO Tail 2393   6.754   1.201  22.713
  141G1FFO Tail 2394   6.871   1.208  22.950
  141G1FFO Tail 2395   7.029   1.019  23.023
  141G1FFO Tail 2396   7.182   0.821  23.069
  141G1FFO Tail 2397   7.371   0.685  23.142
  142G1FFO Head 2398   9.124  -1.597  25.543
  142G1FFO Head 2399   9.027  -1.345  25.500
  142G1FFO Head 2400   8.811  -1.002  25.738
  142G1FFO Head 2401   9.089  -0.956  25.623
  142G1FFO link 2402   9.191  -1.142  25.477
  142G1FFO link 2403   9.484  -1.175  25.479
  142G1FFO Tail 2404   9.700  -0.996  25.663
  142G1FFO Tail 2405   9.489  -0.745  25.757
  142G1FFO Tail 2406   9.490  -0.495  25.709
  142G1FFO Tail 2407   9.583  -0.404  25.479
  142G1FFO Tail 2408   9.718  -0.342  25.273
  142G1FFO Tail 2409   9.844  -0.229  25.115
  142G1FFO Tail 2410   9.858  -0.810  25.396
  142G1FFO Tail 2411  10.095  -0.711  25.370
  142G1FFO Tail 2412  10.158  -0.478  25.425
  142G1FFO Tail 2413  10.250  -0.236  25.444
  142G1FFO Tail 2414  10.385  -0.051  25.482
  143G1FFO Head 2415   9.399   3.374  23.948
  143G1FFO Head 2416   9.283   3.206  23.743
  143G1FFO Head 2417   9.032   3.041  24.248
  143G1FFO Head 2418   9.217   2.976  24.033
  143G1FFO link 2419   9.143   2.998  23.798
  143G1FFO link 2420   8.875   2.980  23.741
  143G1FFO Tail 2421   8.716   2.973  23.454
  143G1FFO Tail 2422   8.425   2.795  23.488
  143G1FFO Tail 2423   8.205   2.863  23.345
  143G1FFO Tail 2424   7.979   2.861  23.481
  143G1FFO Tail 2425   7.790   2.903  23.639
  143G1FFO Tail 2426   7.656   2.928  23.822
  143G1FFO Tail 2427   8.923   2.729  23.304
  143G1FFO Tail 2428   9.185   2.712  23.362
  143G1FFO Tail 2429   9.295   2.946  23.367
  143G1FFO Tail 2430   9.431   3.160  23.342
  143G1FFO Tail 2431   9.518   3.383  23.383
  144G1FFO Head 2432   9.002  -0.999  26.465
  144G1FFO Head 2433   8.771  -0.783  26.502
  144G1FFO Head 2434   8.769  -0.691  27.123
  144G1FFO Head 2435   8.891  -0.741  26.872
  144G1FFO link 2436   8.810  -0.593  26.672
  144G1FFO link 2437   8.910  -0.335  26.589
  144G1FFO Tail 2438   8.781  -0.035  26.622
  144G1FFO Tail 2439   8.796   0.074  26.317
  144G1FFO Tail 2440   8.993  -0.018  26.181
  144G1FFO Tail 2441   8.958   0.000  25.927
  144G1FFO Tail 2442   8.906   0.031  25.692
  144G1FFO Tail 2443   8.845   0.110  25.483
  144G1FFO Tail 2444   9.043   0.134  26.757
  144G1FFO Tail 2445   9.066   0.379  26.675
  144G1FFO Tail 2446   9.232   0.538  26.823
  144G1FFO Tail 2447   9.350   0.684  26.995
  144G1FFO Tail 2448   9.464   0.754  27.186
  145G1FFO Head 2449   8.632   5.262  28.003
  145G1FFO Head 2450   8.541   5.193  27.732
  145G1FFO Head 2451   8.070   5.233  27.596
  145G1FFO Head 2452   8.215   4.988  27.572
  145G1FFO link 2453   8.432   4.948  27.675
  145G1FFO link 2454   8.608   4.740  27.591
  145G1FFO Tail 2455   8.729   4.720  27.297
  145G1FFO Tail 2456   8.487   4.529  27.136
  145G1FFO Tail 2457   8.237   4.559  27.212
  145G1FFO Tail 2458   8.149   4.446  27.436
  145G1FFO Tail 2459   8.093   4.363  27.680
  145G1FFO Tail 2460   7.989   4.307  27.875
  145G1FFO Tail 2461   8.942   4.462  27.326
  145G1FFO Tail 2462   9.163   4.467  27.457
  145G1FFO Tail 2463   9.357   4.587  27.336
  145G1FFO Tail 2464   9.562   4.712  27.252
  145G1FFO Tail 2465   9.738   4.809  27.131
  146G1FFO Head 2466   9.533  -0.381  22.034
  146G1FFO Head 2467   9.584  -0.202  22.301
  146G1FFO Head 2468   9.549  -0.761  22.721
  146G1FFO Head 2469   9.465  -0.498  22.544
  146G1FFO link 2470   9.589  -0.284  22.546
  146G1FFO link 2471   9.723  -0.142  22.766
  146G1FFO Tail 2472   9.733  -0.275  23.058
  146G1FFO Tail 2473   9.811  -0.034  23.275
  146G1FFO Tail 2474   9.620   0.101  23.393
  146G1FFO Tail 2475   9.370   0.084  23.301
  146G1FFO Tail 2476   9.132   0.086  23.203
  146G1FFO Tail 2477   8.918   0.143  23.122
  146G1FFO Tail 2478  10.068  -0.397  23.017
  146G1FFO Tail 2479  10.289  -0.359  23.162
  146G1FFO Tail 2480  10.330  -0.108  23.245
  146G1FFO Tail 2481  10.320   0.130  23.329
  146G1FFO Tail 2482  10.356   0.326  23.453
  147G1FFO Head 2483  10.591   4.559  24.128
  147G1FFO Head 2484  10.415   4.681  24.352
  147G1FFO Head 2485  10.093   5.011  23.811
  147G1FFO Head 2486  10.237   4.974  24.100
  147G1FFO link 2487  10.194   4.782  24.255
  147G1FFO link 2488   9.950   4.637  24.249
  147G1FFO Tail 2489   9.953   4.309  24.189
  147G1FFO Tail 2490   9.755   4.215  24.470
  147G1FFO Tail 2491   9.642   4.368  24.649
  147G1FFO Tail 2492   9.499   4.279  24.848
  147G1FFO Tail 2493   9.360   4.155  25.020
  147G1FFO Tail 2494   9.180   4.080  25.153
  147G1FFO Tail 2495  10.272   4.299  24.360
  147G1FFO Tail 2496  10.254   4.328  24.625
  147G1FFO Tail 2497  10.101   4.204  24.773
  147G1FFO Tail 2498   9.972   4.084  24.958
  147G1FFO Tail 2499   9.806   4.012  25.100
  148G1FFO Head 2500   6.971   0.636  22.075
  148G1FFO Head 2501   7.115   0.524  22.273
  148G1FFO Head 2502   6.820   0.117  22.208
  148G1FFO Head 2503   7.176   0.154  22.122
  148G1FFO link 2504   7.303   0.355  22.184
  148G1FFO link 2505   7.575   0.358  22.252
  148G1FFO Tail 2506   7.749   0.572  22.083
  148G1FFO Tail 2507   8.032   0.651  22.256
  148G1FFO Tail 2508   8.056   0.869  22.378
  148G1FFO Tail 2509   8.167   0.881  22.609
  148G1FFO Tail 2510   8.291   0.935  22.832
  148G1FFO Tail 2511   8.444   0.987  23.006
  148G1FFO Tail 2512   7.568   0.842  22.192
  148G1FFO Tail 2513   7.624   1.039  22.347
  148G1FFO Tail 2514   7.685   0.988  22.599
  148G1FFO Tail 2515   7.725   0.897  22.838
  148G1FFO Tail 2516   7.829   0.817  23.025
  149G1FFO Head 2517  10.171  -0.539  26.371
  149G1FFO Head 2518  10.208  -0.329  26.576
  149G1FFO Head 2519   9.823  -0.198  26.245
  149G1FFO Head 2520   9.824  -0.183  26.555
  149G1FFO link 2521  10.014  -0.213  26.706
  149G1FFO link 2522  10.048  -0.055  26.936
  149G1FFO Tail 2523   9.790   0.030  27.116
  149G1FFO Tail 2524   9.602  -0.241  27.061
  149G1FFO Tail 2525   9.442  -0.242  26.847
  149G1FFO Tail 2526   9.381  -0.488  26.765
  149G1FFO Tail 2527   9.347  -0.730  26.723
  149G1FFO Tail 2528   9.373  -0.964  26.713
  149G1FFO Tail 2529   9.663   0.262  26.881
  149G1FFO Tail 2530   9.785   0.485  26.813
  149G1FFO Tail 2531   9.701   0.620  26.607
  149G1FFO Tail 2532   9.569   0.737  26.416
  149G1FFO Tail 2533   9.401   0.811  26.266
  150G1FFO Head 2534  10.835   4.909  25.379
  150G1FFO Head 2535  10.812   4.626  25.210
  150G1FFO Head 2536  11.265   4.651  25.471
  150G1FFO Head 2537  11.166   4.452  25.304
  150G1FFO link 2538  10.912   4.414  25.317
  150G1FFO link 2539  10.781   4.267  25.519
  150G1FFO Tail 2540  10.535   4.030  25.489
  150G1FFO Tail 2541  10.741   3.738  25.495
  150G1FFO Tail 2542  11.007   3.745  25.476
  150G1FFO Tail 2543  11.154   3.929  25.592
  150G1FFO Tail 2544  11.275   4.119  25.718
  150G1FFO Tail 2545  11.312   4.301  25.865
  150G1FFO Tail 2546  10.454   4.072  25.155
  150G1FFO Tail 2547  10.341   3.867  25.034
  150G1FFO Tail 2548  10.356   3.640  25.153
  150G1FFO Tail 2549  10.402   3.404  25.227
  150G1FFO Tail 2550  10.503   3.192  25.291
  151G1FFO Head 2551   7.642   2.363  21.906
  151G1FFO Head 2552   7.542   2.103  21.732
  151G1FFO Head 2553   6.958   1.766  21.810
  151G1FFO Head 2554   7.248   1.810  21.708
  151G1FFO link 2555   7.406   1.941  21.861
  151G1FFO link 2556   7.510   1.848  22.099
  151G1FFO Tail 2557   7.737   1.628  22.165
  151G1FFO Tail 2558   7.562   1.467  22.442
  151G1FFO Tail 2559   7.663   1.449  22.677
  151G1FFO Tail 2560   7.769   1.662  22.768
  151G1FFO Tail 2561   7.840   1.891  22.844
  151G1FFO Tail 2562   7.918   2.085  22.973
  151G1FFO Tail 2563   7.945   1.824  22.357
  151G1FFO Tail 2564   8.212   1.777  22.390
  151G1FFO Tail 2565   8.293   1.803  22.636
  151G1FFO Tail 2566   8.337   1.859  22.874
  151G1FFO Tail 2567   8.431   1.874  23.093
  152G1FFO Head 2568  12.068   3.871  26.330
  152G1FFO Head 2569  12.009   3.592  26.459
  152G1FFO Head 2570  12.360   3.232  25.962
  152G1FFO Head 2571  12.250   3.442  26.163
  152G1FFO link 2572  12.131   3.363  26.362
  152G1FFO link 2573  12.061   3.094  26.374
  152G1FFO Tail 2574  11.765   2.982  26.289
  152G1FFO Tail 2575  11.782   2.664  26.376
  152G1FFO Tail 2576  11.609   2.496  26.255
  152G1FFO Tail 2577  11.606   2.231  26.309
  152G1FFO Tail 2578  11.601   1.977  26.318
  152G1FFO Tail 2579  11.632   1.748  26.253
  152G1FFO Tail 2580  11.798   2.950  25.954
  152G1FFO Tail 2581  11.624   2.987  25.765
  152G1FFO Tail 2582  11.417   3.151  25.799
  152G1FFO Tail 2583  11.249   3.336  25.845
  152G1FFO Tail 2584  11.109   3.515  25.824
  153G1FFO Head 2585  10.197   3.889  28.147
  153G1FFO Head 2586  10.303   3.793  27.844
  153G1FFO Head 2587   9.857   3.603  27.793
  153G1FFO Head 2588   9.926   3.873  27.716
  153G1FFO link 2589  10.170   3.896  27.650
  153G1FFO link 2590  10.291   3.925  27.389
  153G1FFO Tail 2591  10.165   4.093  27.128
  153G1FFO Tail 2592   9.967   3.833  26.974
  153G1FFO Tail 2593   9.918   3.605  27.081
  153G1FFO Tail 2594  10.090   3.527  27.263
  153G1FFO Tail 2595  10.223   3.427  27.459
  153G1FFO Tail 2596  10.339   3.297  27.608
  153G1FFO Tail 2597  10.442   4.090  26.935
  153G1FFO Tail 2598  10.597   3.883  26.864
  153G1FFO Tail 2599  10.632   3.668  27.002
  153G1FFO Tail 2600  10.612   3.463  27.161
  153G1FFO Tail 2601  10.665   3.276  27.282
  154G1FFO Head 2602   7.574   1.414  24.026
  154G1FFO Head 2603   7.488   1.302  24.295
  154G1FFO Head 2604   7.447   1.383  24.951
  154G1FFO Head 2605   7.476   1.555  24.663
  154G1FFO link 2606   7.341   1.478  24.444
  154G1FFO link 2607   7.092   1.601  24.379
  154G1FFO Tail 2608   6.805   1.438  24.439
  154G1FFO Tail 2609   6.855   1.183  24.189
  154G1FFO Tail 2610   6.687   1.201  23.991
  154G1FFO Tail 2611   6.567   0.972  23.932
  154G1FFO Tail 2612   6.427   0.775  23.842
  154G1FFO Tail 2613   6.357   0.579  23.731
  154G1FFO Tail 2614   6.537   1.640  24.285
  154G1FFO Tail 2615   6.304   1.690  24.385
  154G1FFO Tail 2616   6.094   1.635  24.244
  154G1FFO Tail 2617   5.889   1.548  24.136
  154G1FFO Tail 2618   5.735   1.400  24.031
  155G1FFO Head 2619   9.190   2.804  25.646
  155G1FFO Head 2620   9.337   2.664  25.412
  155G1FFO Head 2621   9.425   2.340  25.008
  155G1FFO Head 2622   9.596   2.400  25.240
  155G1FFO link 2623   9.483   2.450  25.454
  155G1FFO link 2624   9.402   2.243  25.625
  155G1FFO Tail 2625   9.446   2.254  25.945
  155G1FFO Tail 2626   9.224   1.994  26.063
  155G1FFO Tail 2627   8.997   2.047  26.210
  155G1FFO Tail 2628   8.951   2.293  26.225
  155G1FFO Tail 2629   8.912   2.537  26.285
  155G1FFO Tail 2630   8.925   2.776  26.298
  155G1FFO Tail 2631   9.306   2.551  26.021
  155G1FFO Tail 2632   9.428   2.747  26.144
  155G1FFO Tail 2633   9.395   2.755  26.397
  155G1FFO Tail 2634   9.405   2.792  26.642
  155G1FFO Tail 2635   9.450   2.837  26.867
  156G1FFO Head 2636   8.861   0.198  27.216
  156G1FFO Head 2637   8.955   0.432  27.139
  156G1FFO Head 2638   8.846   0.407  27.700
  156G1FFO Head 2639   9.096   0.483  27.526
  156G1FFO link 2640   9.075   0.621  27.305
  156G1FFO link 2641   9.065   0.904  27.280
  156G1FFO Tail 2642   9.243   1.130  27.448
  156G1FFO Tail 2643   9.525   1.193  27.238
  156G1FFO Tail 2644   9.578   1.436  27.156
  156G1FFO Tail 2645   9.791   1.460  27.011
  156G1FFO Tail 2646  10.018   1.483  26.893
  156G1FFO Tail 2647  10.175   1.506  26.719
  156G1FFO Tail 2648   9.416   0.914  27.673
  156G1FFO Tail 2649   9.397   0.880  27.934
  156G1FFO Tail 2650   9.193   0.749  28.023
  156G1FFO Tail 2651   9.025   0.579  28.114
  156G1FFO Tail 2652   8.917   0.385  28.184
  157G1FFO Head 2653   6.936   1.678  23.358
  157G1FFO Head 2654   7.025   1.410  23.273
  157G1FFO Head 2655   7.091   1.426  23.825
  157G1FFO Head 2656   7.290   1.421  23.599
  157G1FFO link 2657   7.262   1.338  23.362
  157G1FFO link 2658   7.455   1.196  23.219
  157G1FFO Tail 2659   7.762   1.146  23.330
  157G1FFO Tail 2660   7.813   1.388  23.568
  157G1FFO Tail 2661   7.674   1.603  23.567
  157G1FFO Tail 2662   7.719   1.790  23.729
  157G1FFO Tail 2663   7.734   1.970  23.908
  157G1FFO Tail 2664   7.703   2.142  24.067
  157G1FFO Tail 2665   7.930   1.310  23.063
  157G1FFO Tail 2666   8.112   1.495  23.122
  157G1FFO Tail 2667   8.354   1.438  23.140
  157G1FFO Tail 2668   8.603   1.419  23.160
  157G1FFO Tail 2669   8.838   1.463  23.124
  158G1FFO Head 2670  12.580   0.921  26.915
  158G1FFO Head 2671  12.400   0.978  26.640
  158G1FFO Head 2672  12.599   1.589  26.531
  158G1FFO Head 2673  12.433   1.360  26.719
  158G1FFO link 2674  12.277   1.198  26.595
  158G1FFO link 2675  12.017   1.260  26.522
  158G1FFO Tail 2676  11.764   1.259  26.728
  158G1FFO Tail 2677  11.618   0.956  26.652
  158G1FFO Tail 2678  11.762   0.767  26.536
  158G1FFO Tail 2679  11.657   0.605  26.372
  158G1FFO Tail 2680  11.604   0.442  26.184
  158G1FFO Tail 2681  11.622   0.281  26.019
  158G1FFO Tail 2682  11.520   1.459  26.570
  158G1FFO Tail 2683  11.485   1.693  26.662
  158G1FFO Tail 2684  11.246   1.798  26.625
  158G1FFO Tail 2685  11.033   1.936  26.615
  158G1FFO Tail 2686  10.809   2.008  26.577
  159G1FFO Head 2687   8.966  -2.304  23.514
  159G1FFO Head 2688   8.752  -2.093  23.499
  159G1FFO Head 2689   9.030  -1.939  22.936
  159G1FFO Head 2690   8.988  -1.879  23.236
  159G1FFO link 2691   8.766  -1.909  23.315
  159G1FFO link 2692   8.538  -1.801  23.192
  159G1FFO Tail 2693   8.539  -1.504  23.070
  159G1FFO Tail 2694   8.861  -1.404  23.151
  159G1FFO Tail 2695   8.946  -1.409  23.402
  159G1FFO Tail 2696   8.777  -1.493  23.572
  159G1FFO Tail 2697   8.622  -1.543  23.767
  159G1FFO Tail 2698   8.467  -1.521  23.935
  159G1FFO Tail 2699   8.336  -1.372  23.323
  159G1FFO Tail 2700   8.253  -1.505  23.538
  159G1FFO Tail 2701   8.008  -1.577  23.594
  159G1FFO Tail 2702   7.756  -1.611  23.635
  159G1FFO Tail 2703   7.528  -1.603  23.631
  160G1FFO Head 2704   7.135  -0.477  26.371
  160G1FFO Head 2705   7.406  -0.357  26.292
  160G1FFO Head 2706   7.904  -0.777  26.621
  160G1FFO Head 2707   7.634  -0.579  26.521
  160G1FFO link 2708   7.601  -0.525  26.274
  160G1FFO link 2709   7.697  -0.706  26.074
  160G1FFO Tail 2710   7.642  -0.645  25.757
  160G1FFO Tail 2711   7.952  -0.519  25.661
  160G1FFO Tail 2712   7.980  -0.301  25.520
  160G1FFO Tail 2713   7.948  -0.069  25.649
  160G1FFO Tail 2714   7.904   0.144  25.788
  160G1FFO Tail 2715   7.797   0.312  25.912
  160G1FFO Tail 2716   7.449  -0.358  25.809
  160G1FFO Tail 2717   7.544  -0.143  25.924
  160G1FFO Tail 2718   7.389   0.051  25.987
  160G1FFO Tail 2719   7.236   0.233  26.086
  160G1FFO Tail 2720   7.067   0.351  26.196
  161G1FFO Head 2721  12.583  -0.075  24.521
  161G1FFO Head 2722  12.637   0.249  24.546
  161G1FFO Head 2723  12.817   0.613  24.720
  161G1FFO Head 2724  12.569   0.647  24.535
  161G1FFO link 2725  12.481   0.451  24.438
  161G1FFO link 2726  12.310   0.438  24.204
  161G1FFO Tail 2727  11.990   0.456  24.240
  161G1FFO Tail 2728  11.932   0.678  24.484
  161G1FFO Tail 2729  11.900   0.592  24.738
  161G1FFO Tail 2730  11.887   0.772  24.929
  161G1FFO Tail 2731  11.865   0.959  25.095
  161G1FFO Tail 2732  11.786   1.106  25.262
  161G1FFO Tail 2733  11.931   0.168  24.407
  161G1FFO Tail 2734  11.722   0.007  24.396
  161G1FFO Tail 2735  11.743  -0.221  24.278
  161G1FFO Tail 2736  11.713  -0.439  24.152
  161G1FFO Tail 2737  11.670  -0.659  24.104
  162G1FFO Head 2738   9.772   4.254  22.195
  162G1FFO Head 2739   9.724   3.953  22.337
  162G1FFO Head 2740   9.724   4.346  22.865
  162G1FFO Head 2741   9.575   4.131  22.696
  162G1FFO link 2742   9.700   3.949  22.602
  162G1FFO link 2743   9.866   3.766  22.751
  162G1FFO Tail 2744   9.799   3.445  22.749
  162G1FFO Tail 2745   9.505   3.454  22.954
  162G1FFO Tail 2746   9.264   3.375  22.852
  162G1FFO Tail 2747   9.267   3.156  22.700
  162G1FFO Tail 2748   9.312   2.962  22.546
  162G1FFO Tail 2749   9.310   2.748  22.449
  162G1FFO Tail 2750  10.029   3.315  22.977
  162G1FFO Tail 2751  10.086   3.045  22.985
  162G1FFO Tail 2752  10.268   2.974  22.822
  162G1FFO Tail 2753  10.457   2.935  22.661
  162G1FFO Tail 2754  10.651   2.947  22.529
  163G1FFO Head 2755   9.681   2.327  21.562
  163G1FFO Head 2756   9.700   2.357  21.830
  163G1FFO Head 2757   9.060   2.299  21.821
  163G1FFO Head 2758   9.309   2.417  21.975
  163G1FFO link 2759   9.524   2.253  22.012
  163G1FFO link 2760   9.578   2.087  22.249
  163G1FFO Tail 2761   9.320   1.986  22.417
  163G1FFO Tail 2762   9.090   1.908  22.149
  163G1FFO Tail 2763   9.163   1.934  21.898
  163G1FFO Tail 2764   9.408   1.887  21.824
  163G1FFO Tail 2765   9.658   1.885  21.762
  163G1FFO Tail 2766   9.890   1.825  21.734
  163G1FFO Tail 2767   9.188   2.286  22.504
  163G1FFO Tail 2768   9.054   2.419  22.326
  163G1FFO Tail 2769   8.818   2.335  22.248
  163G1FFO Tail 2770   8.604   2.235  22.146
  163G1FFO Tail 2771   8.389   2.198  22.060
  164G1FFO Head 2772   7.280  -0.106  27.247
  164G1FFO Head 2773   7.518   0.050  27.193
  164G1FFO Head 2774   7.306  -0.239  26.777
  164G1FFO Head 2775   7.375   0.096  26.803
  164G1FFO link 2776   7.533   0.189  26.972
  164G1FFO link 2777   7.733   0.391  26.940
  164G1FFO Tail 2778   7.788   0.497  26.632
  164G1FFO Tail 2779   7.608   0.786  26.668
  164G1FFO Tail 2780   7.697   0.995  26.794
  164G1FFO Tail 2781   7.580   1.074  27.011
  164G1FFO Tail 2782   7.452   1.193  27.186
  164G1FFO Tail 2783   7.402   1.310  27.375
  164G1FFO Tail 2784   7.577   0.265  26.462
  164G1FFO Tail 2785   7.601   0.000  26.459
  164G1FFO Tail 2786   7.792  -0.091  26.323
  164G1FFO Tail 2787   7.951  -0.182  26.156
  164G1FFO Tail 2788   8.090  -0.316  26.027
  165G1FFO Head 2789  12.993   1.353  26.207
  165G1FFO Head 2790  12.929   1.045  26.217
  165G1FFO Head 2791  12.804   0.598  26.505
  165G1FFO Head 2792  12.662   0.708  26.276
  165G1FFO link 2793  12.691   0.956  26.237
  165G1FFO link 2794  12.485   1.153  26.232
  165G1FFO Tail 2795  12.229   1.097  26.032
  165G1FFO Tail 2796  12.086   1.399  26.057
  165G1FFO Tail 2797  11.847   1.406  26.154
  165G1FFO Tail 2798  11.679   1.217  26.130
  165G1FFO Tail 2799  11.510   1.020  26.142
  165G1FFO Tail 2800  11.347   0.880  26.213
  165G1FFO Tail 2801  12.060   0.868  26.227
  165G1FFO Tail 2802  12.157   0.634  26.289
  165G1FFO Tail 2803  12.183   0.573  26.541
  165G1FFO Tail 2804  12.238   0.546  26.782
  165G1FFO Tail 2805  12.288   0.462  26.992
  166G1FFO Head 2806  10.177   1.638  24.458
  166G1FFO Head 2807  10.094   1.912  24.516
  166G1FFO Head 2808  10.244   1.742  25.125
  166G1FFO Head 2809  10.256   1.927  24.891
  166G1FFO link 2810  10.039   1.982  24.740
  166G1FFO link 2811   9.829   2.161  24.802
  166G1FFO Tail 2812   9.877   2.474  24.895
  166G1FFO Tail 2813   9.994   2.602  24.602
  166G1FFO Tail 2814  10.130   2.441  24.452
  166G1FFO Tail 2815  10.326   2.303  24.521
  166G1FFO Tail 2816  10.496   2.126  24.575
  166G1FFO Tail 2817  10.695   2.006  24.610
  166G1FFO Tail 2818  10.172   2.417  25.070
  166G1FFO Tail 2819  10.365   2.593  25.038
  166G1FFO Tail 2820  10.403   2.691  24.805
  166G1FFO Tail 2821  10.458   2.749  24.564
  166G1FFO Tail 2822  10.541   2.855  24.365
  167G1FFO Head 2823   8.953   2.270  25.760
  167G1FFO Head 2824   8.923   2.492  25.499
  167G1FFO Head 2825   9.140   1.973  25.115
  167G1FFO Head 2826   9.082   2.193  25.324
  167G1FFO link 2827   9.016   2.432  25.268
  167G1FFO link 2828   8.988   2.554  25.010
  167G1FFO Tail 2829   9.016   2.342  24.743
  167G1FFO Tail 2830   8.913   2.573  24.490
  167G1FFO Tail 2831   9.093   2.638  24.308
  167G1FFO Tail 2832   9.022   2.579  24.071
  167G1FFO Tail 2833   8.915   2.517  23.845
  167G1FFO Tail 2834   8.758   2.463  23.683
  167G1FFO Tail 2835   8.747   2.146  24.767
  167G1FFO Tail 2836   8.664   2.036  24.987
  167G1FFO Tail 2837   8.579   2.188  25.184
  167G1FFO Tail 2838   8.510   2.356  25.357
  167G1FFO Tail 2839   8.472   2.552  25.485
  168G1FFO Head 2840   8.343   1.633  24.970
  168G1FFO Head 2841   8.517   1.549  25.256
  168G1FFO Head 2842   9.052   1.798  25.559
  168G1FFO Head 2843   8.776   1.840  25.386
  168G1FFO link 2844   8.555   1.743  25.443
  168G1FFO link 2845   8.382   1.829  25.650
  168G1FFO Tail 2846   8.324   2.143  25.729
  168G1FFO Tail 2847   8.528   2.147  26.024
  168G1FFO Tail 2848   8.412   2.150  26.264
  168G1FFO Tail 2849   8.495   2.333  26.434
  168G1FFO Tail 2850   8.558   2.497  26.625
  168G1FFO Tail 2851   8.564   2.624  26.825
  168G1FFO Tail 2852   7.999   2.090  25.871
  168G1FFO Tail 2853   7.908   1.854  25.897
  168G1FFO Tail 2854   7.943   1.675  25.717
  168G1FFO Tail 2855   7.996   1.543  25.510
  168G1FFO Tail 2856   8.118   1.438  25.339
  169G1FFO Head 2857   5.940   1.146  26.412
  169G1FFO Head 2858   6.085   1.411  26.390
  169G1FFO Head 2859   5.558   1.526  26.532
  169G1FFO Head 2860   5.837   1.633  26.599
  169G1FFO link 2861   5.990   1.683  26.408
  169G1FFO link 2862   5.899   1.848  26.185
  169G1FFO Tail 2863   6.087   2.106  26.094
  169G1FFO Tail 2864   6.055   2.050  25.749
  169G1FFO Tail 2865   5.952   2.220  25.586
  169G1FFO Tail 2866   6.107   2.317  25.405
  169G1FFO Tail 2867   6.249   2.392  25.200
  169G1FFO Tail 2868   6.364   2.416  25.000
  169G1FFO Tail 2869   6.399   1.995  26.129
  169G1FFO Tail 2870   6.497   1.760  26.062
  169G1FFO Tail 2871   6.349   1.564  25.982
  169G1FFO Tail 2872   6.208   1.358  25.944
  169G1FFO Tail 2873   6.024   1.214  25.906
  170G1FFO Head 2874   9.420   5.952  27.289
  170G1FFO Head 2875   9.303   5.942  27.013
  170G1FFO Head 2876   9.166   5.994  26.546
  170G1FFO Head 2877   9.021   5.836  26.747
  170G1FFO link 2878   9.120   5.758  26.965
  170G1FFO link 2879   8.967   5.651  27.168
  170G1FFO Tail 2880   8.661   5.538  27.091
  170G1FFO Tail 2881   8.686   5.208  27.199
  170G1FFO Tail 2882   8.538   5.018  27.115
  170G1FFO Tail 2883   8.513   5.009  26.846
  170G1FFO Tail 2884   8.535   4.990  26.592
  170G1FFO Tail 2885   8.509   4.937  26.365
  170G1FFO Tail 2886   8.628   5.520  26.754
  170G1FFO Tail 2887   8.859   5.462  26.632
  170G1FFO Tail 2888   9.036   5.333  26.761
  170G1FFO Tail 2889   9.229   5.219  26.867
  170G1FFO Tail 2890   9.452   5.159  26.937
  171G1FFO Head 2891  10.895   1.239  24.000
  171G1FFO Head 2892  10.628   1.090  24.003
  171G1FFO Head 2893  10.818   1.270  23.484
  171G1FFO Head 2894  10.670   1.057  23.592
  171G1FFO link 2895  10.495   1.119  23.765
  171G1FFO link 2896  10.242   1.215  23.708
  171G1FFO Tail 2897  10.180   1.509  23.608
  171G1FFO Tail 2898  10.306   1.720  23.872
  171G1FFO Tail 2899  10.186   1.876  24.039
  171G1FFO Tail 2900   9.932   1.848  24.092
  171G1FFO Tail 2901   9.693   1.868  24.168
  171G1FFO Tail 2902   9.489   1.835  24.268
  171G1FFO Tail 2903   9.832   1.497  23.738
  171G1FFO Tail 2904   9.673   1.702  23.710
  171G1FFO Tail 2905   9.432   1.684  23.626
  171G1FFO Tail 2906   9.199   1.716  23.543
  171G1FFO Tail 2907   8.972   1.699  23.512
  172G1FFO Head 2908  11.899   4.543  26.614
  172G1FFO Head 2909  11.653   4.559  26.460
  172G1FFO Head 2910  11.582   3.995  26.106
  172G1FFO Head 2911  11.630   4.261  26.185
  172G1FFO link 2912  11.521   4.342  26.413
  172G1FFO link 2913  11.514   4.156  26.617
  172G1FFO Tail 2914  11.426   3.838  26.546
  172G1FFO Tail 2915  11.103   3.832  26.695
  172G1FFO Tail 2916  11.072   3.687  26.911
  172G1FFO Tail 2917  11.166   3.439  26.888
  172G1FFO Tail 2918  11.213   3.184  26.863
  172G1FFO Tail 2919  11.190   2.944  26.842
  172G1FFO Tail 2920  11.622   3.656  26.770
  172G1FFO Tail 2921  11.830   3.761  26.884
  172G1FFO Tail 2922  11.927   3.636  27.101
  172G1FFO Tail 2923  11.971   3.481  27.301
  172G1FFO Tail 2924  12.036   3.383  27.505
  173G1FFO Head 2925  10.635   3.851  23.178
  173G1FFO Head 2926  10.520   3.676  23.039
  173G1FFO Head 2927  10.302   3.796  23.563
  173G1FFO Head 2928  10.201   3.651  23.298
  173G1FFO link 2929  10.355   3.506  23.165
  173G1FFO link 2930  10.412   3.240  23.237
  173G1FFO Tail 2931  10.287   3.094  23.514
  173G1FFO Tail 2932   9.945   3.186  23.470
  173G1FFO Tail 2933   9.782   3.202  23.675
  173G1FFO Tail 2934   9.636   2.995  23.739
  173G1FFO Tail 2935   9.534   2.770  23.785
  173G1FFO Tail 2936   9.431   2.562  23.777
  173G1FFO Tail 2937  10.325   3.344  23.763
  173G1FFO Tail 2938  10.507   3.356  23.948
  173G1FFO Tail 2939  10.452   3.441  24.179
  173G1FFO Tail 2940  10.390   3.472  24.426
  173G1FFO Tail 2941  10.348   3.554  24.636
  174G1FFO Head 2942   8.629   2.829  24.792
  174G1FFO Head 2943   8.479   2.647  24.985
  174G1FFO Head 2944   7.866   2.342  25.121
  174G1FFO Head 2945   8.157   2.410  25.092
  174G1FFO link 2946   8.265   2.528  24.895
  174G1FFO link 2947   8.232   2.469  24.621
  174G1FFO Tail 2948   8.004   2.620  24.442
  174G1FFO Tail 2949   7.719   2.519  24.642
  174G1FFO Tail 2950   7.582   2.294  24.640
  174G1FFO Tail 2951   7.499   2.171  24.864
  174G1FFO Tail 2952   7.456   2.076  25.102
  174G1FFO Tail 2953   7.396   2.040  25.327
  174G1FFO Tail 2954   8.002   2.375  24.220
  174G1FFO Tail 2955   8.183   2.189  24.238
  174G1FFO Tail 2956   8.183   1.972  24.096
  174G1FFO Tail 2957   8.179   1.762  23.951
  174G1FFO Tail 2958   8.118   1.557  23.869
  175G1FFO Head 2959   8.880   1.104  25.006
  175G1FFO Head 2960   8.591   1.165  25.033
  175G1FFO Head 2961   8.647   0.740  24.727
  175G1FFO Head 2962   8.415   0.828  24.899
  175G1FFO link 2963   8.444   0.938  25.125
  175G1FFO link 2964   8.247   0.934  25.338
  175G1FFO Tail 2965   8.307   0.969  25.660
  175G1FFO Tail 2966   7.973   0.978  25.782
  175G1FFO Tail 2967   7.890   1.091  26.005
  175G1FFO Tail 2968   8.004   1.313  26.077
  175G1FFO Tail 2969   8.079   1.544  26.145
  175G1FFO Tail 2970   8.203   1.743  26.171
  175G1FFO Tail 2971   8.343   1.301  25.692
  175G1FFO Tail 2972   8.585   1.393  25.762
  175G1FFO Tail 2973   8.757   1.386  25.572
  175G1FFO Tail 2974   8.947   1.350  25.402
  175G1FFO Tail 2975   9.097   1.390  25.230
  176G1FFO Head 2976   6.654   0.203  24.805
  176G1FFO Head 2977   6.688   0.342  24.521
  176G1FFO Head 2978   6.161  -0.046  24.227
  176G1FFO Head 2979   6.361   0.079  24.408
  176G1FFO link 2980   6.543   0.239  24.309
  176G1FFO link 2981   6.615   0.244  24.035
  176G1FFO Tail 2982   6.907   0.375  23.937
  176G1FFO Tail 2983   6.961   0.656  24.170
  176G1FFO Tail 2984   7.202   0.733  24.263
  176G1FFO Tail 2985   7.205   0.941  24.417
  176G1FFO Tail 2986   7.171   1.143  24.570
  176G1FFO Tail 2987   7.091   1.277  24.747
  176G1FFO Tail 2988   6.818   0.567  23.652
  176G1FFO Tail 2989   6.991   0.647  23.468
  176G1FFO Tail 2990   7.249   0.629  23.542
  176G1FFO Tail 2991   7.475   0.596  23.649
  176G1FFO Tail 2992   7.673   0.597  23.784
  177G1FFO Head 2993   9.092   5.560  26.309
  177G1FFO Head 2994   9.292   5.333  26.402
  177G1FFO Head 2995   9.652   5.720  26.878
  177G1FFO Head 2996   9.508   5.626  26.607
  177G1FFO link 2997   9.524   5.380  26.542
  177G1FFO link 2998   9.767   5.226  26.553
  177G1FFO Tail 2999   9.808   4.962  26.361
  177G1FFO Tail 3000  10.103   5.026  26.218
  177G1FFO Tail 3001  10.311   4.874  26.288
  177G1FFO Tail 3002  10.505   4.823  26.123
  177G1FFO Tail 3003  10.667   4.746  25.944
  177G1FFO Tail 3004  10.760   4.648  25.752
  177G1FFO Tail 3005   9.615   5.037  26.073
  177G1FFO Tail 3006   9.361   5.021  26.077
  177G1FFO Tail 3007   9.237   5.215  25.942
  177G1FFO Tail 3008   9.163   5.425  25.818
  177G1FFO Tail 3009   9.103   5.645  25.770
  178G1FFO Head 3010   5.259   2.330  25.378
  178G1FFO Head 3011   5.248   2.585  25.210
  178G1FFO Head 3012   5.323   3.155  25.583
  178G1FFO Head 3013   5.258   2.882  25.507
  178G1FFO link 3014   5.353   2.808  25.304
  178G1FFO link 3015   5.474   2.982  25.125
  178G1FFO Tail 3016   5.795   2.997  25.059
  178G1FFO Tail 3017   5.818   2.998  24.717
  178G1FFO Tail 3018   5.952   3.189  24.585
  178G1FFO Tail 3019   5.812   3.334  24.406
  178G1FFO Tail 3020   5.656   3.479  24.269
  178G1FFO Tail 3021   5.548   3.615  24.102
  178G1FFO Tail 3022   5.898   2.678  25.097
  178G1FFO Tail 3023   5.752   2.465  25.044
  178G1FFO Tail 3024   5.860   2.277  24.899
  178G1FFO Tail 3025   6.004   2.121  24.756
  178G1FFO Tail 3026   6.072   1.949  24.604
  179G1FFO Head 3027  11.762  -0.276  23.698
  179G1FFO Head 3028  11.483  -0.174  23.592
  179G1FFO Head 3029  11.731   0.127  23.947
  179G1FFO Head 3030  11.500   0.175  23.778
  179G1FFO link 3031  11.351  -0.001  23.722
  179G1FFO link 3032  11.064   0.044  23.712
  179G1FFO Tail 3033  10.859  -0.225  23.726
  179G1FFO Tail 3034  10.788  -0.216  24.072
  179G1FFO Tail 3035  10.825  -0.042  24.259
  179G1FFO Tail 3036  10.663   0.169  24.273
  179G1FFO Tail 3037  10.511   0.362  24.329
  179G1FFO Tail 3038  10.413   0.571  24.341
  179G1FFO Tail 3039  11.104  -0.454  23.724
  179G1FFO Tail 3040  11.290  -0.436  23.894
  179G1FFO Tail 3041  11.271  -0.227  24.053
  179G1FFO Tail 3042  11.292  -0.057  24.238
  179G1FFO Tail 3043  11.239   0.065  24.432
  180G1FFO Head 3044   4.703   2.581  24.267
  180G1FFO Head 3045   4.985   2.561  24.393
  180G1FFO Head 3046   5.129   2.576  23.789
  180G1FFO Head 3047   5.199   2.651  24.074
  180G1FFO link 3048   5.171   2.455  24.248
  180G1FFO link 3049   5.370   2.259  24.344
  180G1FFO Tail 3050   5.593   2.322  24.572
  180G1FFO Tail 3051   5.423   2.542  24.766
  180G1FFO Tail 3052   5.308   2.763  24.671
  180G1FFO Tail 3053   5.430   2.859  24.448
  180G1FFO Tail 3054   5.556   2.896  24.226
  180G1FFO Tail 3055   5.616   2.984  24.015
  180G1FFO Tail 3056   5.834   2.531  24.437
  180G1FFO Tail 3057   6.079   2.481  24.477
  180G1FFO Tail 3058   6.194   2.310  24.324
  180G1FFO Tail 3059   6.259   2.117  24.174
  180G1FFO Tail 3060   6.332   1.983  23.999
  181G1FFO Head 3061  11.795   1.570  25.256
  181G1FFO Head 3062  11.753   1.861  25.127
  181G1FFO Head 3063  12.282   2.239  25.414
  181G1FFO Head 3064  12.071   2.033  25.274
  181G1FFO link 3065  11.824   2.083  25.260
  181G1FFO link 3066  11.671   2.205  25.459
  181G1FFO Tail 3067  11.360   2.127  25.513
  181G1FFO Tail 3068  11.420   2.091  25.845
  181G1FFO Tail 3069  11.219   1.976  25.993
  181G1FFO Tail 3070  11.228   1.721  26.030
  181G1FFO Tail 3071  11.235   1.480  26.113
  181G1FFO Tail 3072  11.170   1.272  26.199
  181G1FFO Tail 3073  11.348   1.808  25.375
  181G1FFO Tail 3074  11.270   1.749  25.143
  181G1FFO Tail 3075  11.027   1.698  25.073
  181G1FFO Tail 3076  10.789   1.679  24.980
  181G1FFO Tail 3077  10.604   1.617  24.845
  182G1FFO Head 3078  10.897   3.264  22.447
  182G1FFO Head 3079  11.073   3.065  22.583
  182G1FFO Head 3080  11.644   3.034  22.932
  182G1FFO Head 3081  11.451   3.105  22.741
  182G1FFO link 3082  11.221   3.143  22.791
  182G1FFO link 3083  11.133   3.186  23.065
  182G1FFO Tail 3084  10.998   2.977  23.269
  182G1FFO Tail 3085  11.201   2.700  23.209
  182G1FFO Tail 3086  11.359   2.696  22.995
  182G1FFO Tail 3087  11.513   2.497  22.974
  182G1FFO Tail 3088  11.687   2.315  22.986
  182G1FFO Tail 3089  11.782   2.111  22.990
  182G1FFO Tail 3090  10.709   2.885  23.098
  182G1FFO Tail 3091  10.690   2.643  22.972
  182G1FFO Tail 3092  10.866   2.599  22.789
  182G1FFO Tail 3093  11.054   2.615  22.629
  182G1FFO Tail 3094  11.255   2.654  22.530
  183G1FFO Head 3095   5.669   1.534  22.574
  183G1FFO Head 3096   5.883   1.763  22.534
  183G1FFO Head 3097   6.051   1.364  22.304
  183G1FFO Head 3098   6.195   1.516  22.578
  183G1FFO link 3099   6.120   1.747  22.648
  183G1FFO link 3100   6.218   1.922  22.844
  183G1FFO Tail 3101   6.390   1.802  23.109
  183G1FFO Tail 3102   6.627   2.052  23.129
  183G1FFO Tail 3103   6.528   2.283  23.179
  183G1FFO Tail 3104   6.635   2.430  23.366
  183G1FFO Tail 3105   6.735   2.605  23.517
  183G1FFO Tail 3106   6.818   2.717  23.702
  183G1FFO Tail 3107   6.591   1.629  22.916
  183G1FFO Tail 3108   6.822   1.733  22.834
  183G1FFO Tail 3109   7.034   1.582  22.787
  183G1FFO Tail 3110   7.219   1.411  22.751
  183G1FFO Tail 3111   7.353   1.220  22.763
  184G1FFO Head 3112  10.946   3.467  27.934
  184G1FFO Head 3113  10.796   3.286  27.726
  184G1FFO Head 3114  10.347   3.368  28.048
  184G1FFO Head 3115  10.525   3.137  28.015
  184G1FFO link 3116  10.637   3.095  27.791
  184G1FFO link 3117  10.602   2.857  27.625
  184G1FFO Tail 3118  10.291   2.749  27.586
  184G1FFO Tail 3119  10.211   2.927  27.313
  184G1FFO Tail 3120  10.338   2.974  27.096
  184G1FFO Tail 3121  10.272   3.179  26.953
  184G1FFO Tail 3122  10.241   3.395  26.811
  184G1FFO Tail 3123  10.262   3.605  26.709
  184G1FFO Tail 3124  10.111   2.914  27.837
  184G1FFO Tail 3125   9.928   3.097  27.776
  184G1FFO Tail 3126   9.835   3.117  27.539
  184G1FFO Tail 3127   9.781   3.144  27.284
  184G1FFO Tail 3128   9.657   3.193  27.090
  185G1FFO Head 3129   4.779   1.995  23.589
  185G1FFO Head 3130   5.022   2.180  23.577
  185G1FFO Head 3131   5.034   2.094  24.023
  185G1FFO Head 3132   5.251   2.008  23.877
  185G1FFO link 3133   5.274   2.074  23.629
  185G1FFO link 3134   5.482   2.154  23.461
  185G1FFO Tail 3135   5.523   2.145  23.139
  185G1FFO Tail 3136   5.799   1.935  23.107
  185G1FFO Tail 3137   5.803   1.714  22.969
  185G1FFO Tail 3138   5.968   1.526  23.031
  185G1FFO Tail 3139   6.160   1.366  23.064
  185G1FFO Tail 3140   6.359   1.268  23.130
  185G1FFO Tail 3141   5.696   2.426  23.093
  185G1FFO Tail 3142   5.743   2.607  23.266
  185G1FFO Tail 3143   5.656   2.593  23.512
  185G1FFO Tail 3144   5.580   2.535  23.749
  185G1FFO Tail 3145   5.583   2.474  23.982
  186G1FFO Head 3146   8.847   3.552  25.341
  186G1FFO Head 3147   8.626   3.431  25.482
  186G1FFO Head 3148   9.031   3.162  25.972
  186G1FFO Head 3149   8.850   3.166  25.730
  186G1FFO link 3150   8.663   3.363  25.728
  186G1FFO link 3151   8.496   3.449  25.962
  186G1FFO Tail 3152   8.305   3.225  26.109
  186G1FFO Tail 3153   8.555   3.009  26.223
  186G1FFO Tail 3154   8.553   2.905  26.465
  186G1FFO Tail 3155   8.599   3.074  26.655
  186G1FFO Tail 3156   8.663   3.208  26.864
  186G1FFO Tail 3157   8.685   3.328  27.063
  186G1FFO Tail 3158   8.204   3.049  25.839
  186G1FFO Tail 3159   8.249   3.102  25.590
  186G1FFO Tail 3160   8.471   3.011  25.482
  186G1FFO Tail 3161   8.697   2.964  25.362
  186G1FFO Tail 3162   8.906   2.888  25.320
  187G1FFO Head 3163   8.337   4.713  24.879
  187G1FFO Head 3164   8.458   5.024  24.814
  187G1FFO Head 3165   8.807   5.483  24.678
  187G1FFO Head 3166   8.738   5.318  24.939
  187G1FFO link 3167   8.690   5.056  24.923
  187G1FFO link 3168   8.884   4.839  24.949
  187G1FFO Tail 3169   8.919   4.643  25.225
  187G1FFO Tail 3170   8.923   4.904  25.490
  187G1FFO Tail 3171   9.057   4.902  25.723
  187G1FFO Tail 3172   9.250   4.715  25.738
  187G1FFO Tail 3173   9.426   4.542  25.791
  187G1FFO Tail 3174   9.625   4.429  25.835
  187G1FFO Tail 3175   9.256   4.571  25.225
  187G1FFO Tail 3176   9.424   4.785  25.228
  187G1FFO Tail 3177   9.453   4.921  25.017
  187G1FFO Tail 3178   9.510   5.088  24.842
  187G1FFO Tail 3179   9.621   5.211  24.681
  188G1FFO Head 3180   7.593  -1.537  22.546
  188G1FFO Head 3181   7.636  -1.390  22.835
  188G1FFO Head 3182   7.504  -1.668  23.189
  188G1FFO Head 3183   7.798  -1.511  23.184
  188G1FFO link 3184   7.852  -1.415  22.955
  188G1FFO link 3185   8.114  -1.360  22.844
  188G1FFO Tail 3186   8.332  -1.129  22.954
  188G1FFO Tail 3187   8.180  -0.928  23.193
  188G1FFO Tail 3188   8.265  -0.685  23.261
  188G1FFO Tail 3189   8.246  -0.495  23.081
  188G1FFO Tail 3190   8.244  -0.277  22.947
  188G1FFO Tail 3191   8.210  -0.124  22.776
  188G1FFO Tail 3192   8.286  -0.924  22.687
  188G1FFO Tail 3193   8.262  -0.677  22.709
  188G1FFO Tail 3194   8.226  -0.529  22.495
  188G1FFO Tail 3195   8.227  -0.400  22.270
  188G1FFO Tail 3196   8.261  -0.333  22.046
  189G1FFO Head 3197   9.914  -0.028  22.078
  189G1FFO Head 3198  10.045   0.259  22.037
  189G1FFO Head 3199  10.296   0.101  21.435
  189G1FFO Head 3200  10.163   0.104  21.661
  189G1FFO link 3201  10.158   0.318  21.790
  189G1FFO link 3202  10.212   0.577  21.666
  189G1FFO Tail 3203  10.011   0.828  21.755
  189G1FFO Tail 3204  10.195   1.011  21.978
  189G1FFO Tail 3205  10.077   1.102  22.173
  189G1FFO Tail 3206  10.210   1.215  22.367
  189G1FFO Tail 3207  10.373   1.324  22.548
  189G1FFO Tail 3208  10.516   1.464  22.662
  189G1FFO Tail 3209   9.791   0.651  21.950
  189G1FFO Tail 3210   9.799   0.615  22.208
  189G1FFO Tail 3211  10.030   0.641  22.323
  189G1FFO Tail 3212  10.254   0.711  22.424
  189G1FFO Tail 3213  10.438   0.835  22.510
  190G1FFO Head 3214  11.382   0.444  27.364
  190G1FFO Head 3215  11.284   0.552  27.056
  190G1FFO Head 3216  11.805   0.542  27.090
  190G1FFO Head 3217  11.603   0.806  27.096
  190G1FFO link 3218  11.365   0.793  26.996
  190G1FFO link 3219  11.198   1.008  26.903
  190G1FFO Tail 3220  11.178   1.103  26.586
  190G1FFO Tail 3221  10.939   1.357  26.613
  190G1FFO Tail 3222  10.806   1.429  26.397
  190G1FFO Tail 3223  10.613   1.593  26.429
  190G1FFO Tail 3224  10.434   1.770  26.426
  190G1FFO Tail 3225  10.235   1.886  26.385
  190G1FFO Tail 3226  10.927   0.887  26.437
  190G1FFO Tail 3227  10.853   0.918  26.190
  190G1FFO Tail 3228  10.683   0.729  26.111
  190G1FFO Tail 3229  10.541   0.560  25.979
  190G1FFO Tail 3230  10.365   0.436  25.885
  191G1FFO Head 3231  11.151   1.935  24.639
  191G1FFO Head 3232  11.071   1.852  24.369
  191G1FFO Head 3233  10.593   1.394  24.450
  191G1FFO Head 3234  10.805   1.558  24.492
  191G1FFO link 3235  10.832   1.760  24.353
  191G1FFO link 3236  10.639   1.857  24.178
  191G1FFO Tail 3237  10.701   2.084  23.942
  191G1FFO Tail 3238  11.041   2.123  23.996
  191G1FFO Tail 3239  11.136   2.351  24.092
  191G1FFO Tail 3240  11.384   2.402  24.035
  191G1FFO Tail 3241  11.621   2.489  23.972
  191G1FFO Tail 3242  11.853   2.529  23.949
  191G1FFO Tail 3243  10.597   2.371  24.107
  191G1FFO Tail 3244  10.626   2.627  24.028
  191G1FFO Tail 3245  10.859   2.725  24.073
  191G1FFO Tail 3246  11.087   2.798  24.144
  191G1FFO Tail 3247  11.322   2.835  24.140
  192LEFL  Drug 3248   6.759  -0.392  25.563
  192LEFL  Drug 3249   6.873  -0.436  25.297
  192LEFL  Drug 3250   6.972  -0.589  25.361
  192LEFL  Drug 3251   7.185  -0.591  25.481
  192LEFL  Drug 3252   7.396  -0.733  25.464
  192LEFL  Drug 3253   7.221  -0.974  25.424
  192LEFL  Drug 3254   7.515  -0.919  25.439
  192LEFL  Drug 3255   7.536  -1.155  25.421
  193LEFL  Drug 3256   9.016   4.151  26.374
  193LEFL  Drug 3257   8.899   4.282  26.609
  193LEFL  Drug 3258   8.845   4.111  26.681
  193LEFL  Drug 3259   8.757   3.953  26.873
  193LEFL  Drug 3260   8.616   3.753  26.833
  193LEFL  Drug 3261   8.336   3.643  26.837
  193LEFL  Drug 3262   8.587   3.597  26.679
  193LEFL  Drug 3263   8.438   3.495  26.524
  194LEFL  Drug 3264   7.937   4.047  24.483
  194LEFL  Drug 3265   7.815   4.277  24.348
  194LEFL  Drug 3266   7.842   4.388  24.504
  194LEFL  Drug 3267   7.918   4.595  24.633
  194LEFL  Drug 3268   7.805   4.749  24.775
  194LEFL  Drug 3269   7.594   4.766  24.989
  194LEFL  Drug 3270   7.892   4.732  24.978
  194LEFL  Drug 3271   7.896   4.804  25.204
  196LEFL  Drug 3272   5.394   4.216  23.368
  196LEFL  Drug 3273   5.620   4.192  23.553
  196LEFL  Drug 3274   5.623   4.000  23.531
  196LEFL  Drug 3275   5.815   3.859  23.561
  196LEFL  Drug 3276   5.971   3.699  23.451
  196LEFL  Drug 3277   5.913   3.406  23.491
  196LEFL  Drug 3278   6.144   3.591  23.539
  196LEFL  Drug 3279   6.245   3.393  23.622
  197LEFL  Drug 3280   7.982   2.901  26.520
  197LEFL  Drug 3281   8.078   2.907  26.243
  197LEFL  Drug 3282   7.925   3.011  26.188
  197LEFL  Drug 3283   7.701   3.043  26.272
  197LEFL  Drug 3284   7.575   3.119  26.489
  197LEFL  Drug 3285   7.797   3.181  26.683
  197LEFL  Drug 3286   7.524   3.289  26.622
  197LEFL  Drug 3287   7.566   3.409  26.822
  199LEFL  Drug 3288   9.294  -2.392  23.837
  199LEFL  Drug 3289   9.330  -2.210  24.064
  199LEFL  Drug 3290   9.436  -2.090  23.955
  199LEFL  Drug 3291   9.441  -1.859  23.983
  199LEFL  Drug 3292   9.557  -1.669  23.862
  199LEFL  Drug 3293   9.752  -1.476  23.987
  199LEFL  Drug 3294   9.612  -1.505  23.723
  199LEFL  Drug 3295   9.732  -1.312  23.657
  200LEFL  Drug 3296  10.811   4.346  25.963
  200LEFL  Drug 3297  10.654   4.407  26.202
  200LEFL  Drug 3298  10.794   4.521  26.270
  200LEFL  Drug 3299  10.813   4.665  26.466
  200LEFL  Drug 3300  10.708   4.875  26.531
  200LEFL  Drug 3301  10.820   4.979  26.271
  200LEFL  Drug 3302  10.645   5.084  26.490
  200LEFL  Drug 3303  10.595   5.260  26.340
  202LEFL  Drug 3304   6.520   1.309  26.709
  202LEFL  Drug 3305   6.363   1.512  26.849
  202LEFL  Drug 3306   6.522   1.614  26.887
  202LEFL  Drug 3307   6.573   1.763  27.076
  202LEFL  Drug 3308   6.733   1.943  27.084
  202LEFL  Drug 3309   6.601   2.205  27.017
  202LEFL  Drug 3310   6.854   2.116  27.151
  202LEFL  Drug 3311   6.934   2.336  27.113
  203LEFL  Drug 3312   7.950   2.705  24.066
  203LEFL  Drug 3313   8.179   2.603  23.915
  203LEFL  Drug 3314   8.070   2.577  23.759
  203LEFL  Drug 3315   7.962   2.349  23.781
  203LEFL  Drug 3316   7.939   2.177  23.625
  203LEFL  Drug 3317   8.109   2.213  23.380
  203LEFL  Drug 3318   8.001   1.982  23.537
  203LEFL  Drug 3319   8.128   1.854  23.384
  204LEFL  Drug 3320   9.232   5.330  25.010
  204LEFL  Drug 3321   9.131   5.159  25.225
  204LEFL  Drug 3322   8.999   5.292  25.273
  204LEFL  Drug 3323   8.790   5.323  25.409
  204LEFL  Drug 3324   8.766   5.394  25.640
  204LEFL  Drug 3325   8.798   5.688  25.583
  204LEFL  Drug 3326   8.630   5.517  25.764
  204LEFL  Drug 3327   8.571   5.731  25.847
  205LEFL  Drug 3328   6.816   4.048  25.036
  205LEFL  Drug 3329   6.955   3.835  24.890
  205LEFL  Drug 3330   6.999   3.957  24.747
  205LEFL  Drug 3331   6.869   4.151  24.675
  205LEFL  Drug 3332   6.846   4.232  24.452
  205LEFL  Drug 3333   6.760   4.199  24.165
  205LEFL  Drug 3334   6.862   4.422  24.338
  205LEFL  Drug 3335   6.813   4.558  24.150
  208LEFL  Drug 3336   9.980   2.167  26.785
  208LEFL  Drug 3337  10.186   2.359  26.866
  208LEFL  Drug 3338  10.136   2.341  27.052
  208LEFL  Drug 3339  10.000   2.495  27.206
  208LEFL  Drug 3340   9.890   2.703  27.129
  208LEFL  Drug 3341  10.100   2.751  26.919
  208LEFL  Drug 3342   9.819   2.841  26.971
  208LEFL  Drug 3343   9.849   2.959  26.767
  210LEFL  Drug 3344   9.871   1.061  25.603
  210LEFL  Drug 3345   9.710   1.307  25.602
  210LEFL  Drug 3346   9.728   1.321  25.410
  210LEFL  Drug 3347   9.811   1.147  25.232
  210LEFL  Drug 3348   9.951   1.229  25.044
  210LEFL  Drug 3349  10.052   1.451  24.867
  210LEFL  Drug 3350  10.130   1.168  24.927
  210LEFL  Drug 3351  10.313   1.195  24.779
  211LEFL  Drug 3352   9.094  -0.294  22.619
  211LEFL  Drug 3353   9.121  -0.087  22.825
  211LEFL  Drug 3354   9.290  -0.031  22.753
  211LEFL  Drug 3355   9.399   0.188  22.826
  211LEFL  Drug 3356   9.632   0.245  22.951
  211LEFL  Drug 3357   9.683   0.439  23.176
  211LEFL  Drug 3358   9.848   0.257  23.004
  211LEFL  Drug 3359  10.038   0.383  23.066
  212LEFL  Drug 3360   5.525   1.799  22.311
  212LEFL  Drug 3361   5.681   1.598  22.166
  212LEFL  Drug 3362   5.794   1.736  22.090
  212LEFL  Drug 3363   6.053   1.707  22.045
  212LEFL  Drug 3364   6.242   1.826  22.148
  212LEFL  Drug 3365   6.299   2.071  22.312
  212LEFL  Drug 3366   6.337   1.775  22.342
  212LEFL  Drug 3367   6.492   1.828  22.513
  213LEFL  Drug 3368  11.062   4.828  25.950
  213LEFL  Drug 3369  11.328   4.856  25.831
  213LEFL  Drug 3370  11.406   4.889  26.004
  213LEFL  Drug 3371  11.336   4.953  26.230
  213LEFL  Drug 3372  11.502   5.060  26.386
  213LEFL  Drug 3373  11.484   5.200  26.652
  213LEFL  Drug 3374  11.518   5.281  26.365
  213LEFL  Drug 3375  11.510   5.502  26.449
  214LEFL  Drug 3376   9.536  -1.203  23.937
  214LEFL  Drug 3377   9.619  -1.009  24.140
  214LEFL  Drug 3378   9.545  -0.863  24.036
  214LEFL  Drug 3379   9.424  -0.652  23.942
  214LEFL  Drug 3380   9.237  -0.535  24.066
  214LEFL  Drug 3381   9.058  -0.316  24.169
  214LEFL  Drug 3382   9.235  -0.527  24.288
  214LEFL  Drug 3383   9.200  -0.419  24.496
  215LEFL  Drug 3384   8.858   1.147  23.819
  215LEFL  Drug 3385   8.910   1.011  24.074
  215LEFL  Drug 3386   8.723   0.966  24.092
  215LEFL  Drug 3387   8.624   0.807  24.243
  215LEFL  Drug 3388   8.412   0.813  24.387
  215LEFL  Drug 3389   8.147   0.824  24.246
  215LEFL  Drug 3390   8.244   0.761  24.522
  215LEFL  Drug 3391   8.013   0.735  24.565
  217LEFL  Drug 3392   6.513  -0.576  22.454
  217LEFL  Drug 3393   6.264  -0.685  22.346
  217LEFL  Drug 3394   6.169  -0.640  22.507
  217LEFL  Drug 3395   6.028  -0.546  22.707
  217LEFL  Drug 3396   6.055  -0.361  22.847
  217LEFL  Drug 3397   6.099  -0.466  23.125
  217LEFL  Drug 3398   5.869  -0.357  22.967
  217LEFL  Drug 3399   5.729  -0.438  23.140
  218LEFL  Drug 3400  10.833   3.309  23.327
  218LEFL  Drug 3401  10.867   3.488  23.097
  218LEFL  Drug 3402  10.797   3.354  22.978
  218LEFL  Drug 3403  10.582   3.307  22.848
  218LEFL  Drug 3404  10.439   3.460  22.742
  218LEFL  Drug 3405  10.245   3.322  22.557
  218LEFL  Drug 3406  10.297   3.603  22.648
  218LEFL  Drug 3407  10.149   3.670  22.475
  220LEFL  Drug 3408   7.856   2.882  25.738
  220LEFL  Drug 3409   8.013   2.815  25.500
  220LEFL  Drug 3410   8.117   2.687  25.600
  220LEFL  Drug 3411   8.020   2.463  25.601
  220LEFL  Drug 3412   8.102   2.278  25.435
  220LEFL  Drug 3413   7.917   2.045  25.391
  220LEFL  Drug 3414   8.210   2.101  25.356
  220LEFL  Drug 3415   8.213   1.894  25.240
  221LEFL  Drug 3416   8.259  -0.656  26.157
  221LEFL  Drug 3417   8.263  -0.803  26.410
  221LEFL  Drug 3418   8.410  -0.696  26.474
  221LEFL  Drug 3419   8.413  -0.662  26.722
  221LEFL  Drug 3420   8.550  -0.507  26.857
  221LEFL  Drug 3421   8.573  -0.344  27.108
  221LEFL  Drug 3422   8.525  -0.290  26.817
  221LEFL  Drug 3423   8.491  -0.066  26.883
  222LEFL  Drug 3424  10.280   1.215  24.376
  222LEFL  Drug 3425  10.338   1.387  24.146
  222LEFL  Drug 3426  10.149   1.404  24.107
  222LEFL  Drug 3427   9.924   1.362  24.192
  222LEFL  Drug 3428   9.765   1.185  24.092
  222LEFL  Drug 3429   9.798   0.909  24.208
  222LEFL  Drug 3430   9.862   1.046  23.949
  222LEFL  Drug 3431   9.913   0.827  23.874
  223LEFL  Drug 3432   9.526   3.547  25.883
  223LEFL  Drug 3433   9.632   3.815  25.932
  223LEFL  Drug 3434   9.723   3.754  26.090
  223LEFL  Drug 3435   9.858   3.641  26.276
  223LEFL  Drug 3436  10.046   3.732  26.388
  223LEFL  Drug 3437   9.944   4.001  26.477
  223LEFL  Drug 3438  10.209   3.861  26.467
  223LEFL  Drug 3439  10.289   4.073  26.536
  224LEFL  Drug 3440   9.820   1.982  28.077
  224LEFL  Drug 3441   9.828   1.827  28.325
  224LEFL  Drug 3442   9.636   1.819  28.331
  224LEFL  Drug 3443   9.525   2.047  28.284
  224LEFL  Drug 3444   9.547   2.270  28.209
  224LEFL  Drug 3445   9.256   2.267  28.129
  224LEFL  Drug 3446   9.520   2.307  27.992
  224LEFL  Drug 3447   9.389   2.400  27.817
  225LEFL  Drug 3448   9.242   4.588  24.814
  225LEFL  Drug 3449   9.038   4.411  24.701
  225LEFL  Drug 3450   9.002   4.335  24.875
  225LEFL  Drug 3451   8.843   4.279  25.055
  225LEFL  Drug 3452   8.597   4.310  25.130
  225LEFL  Drug 3453   8.434   4.281  25.382
  225LEFL  Drug 3454   8.379   4.322  25.090
  225LEFL  Drug 3455   8.158   4.367  25.162
  229LEFL  Drug 3456  10.734   4.892  24.575
  229LEFL  Drug 3457  10.845   4.819  24.836
  229LEFL  Drug 3458  10.891   4.643  24.772
  229LEFL  Drug 3459  10.931   4.544  24.546
  229LEFL  Drug 3460  10.922   4.316  24.419
  229LEFL  Drug 3461  11.101   4.398  24.191
  229LEFL  Drug 3462  10.846   4.244  24.223
  229LEFL  Drug 3463  10.884   4.174  24.000
  230LEFL  Drug 3464  10.849   4.518  23.395
  230LEFL  Drug 3465  10.887   4.325  23.179
  230LEFL  Drug 3466  10.701   4.273  23.188
  230LEFL  Drug 3467  10.576   4.326  22.976
  230LEFL  Drug 3468  10.403   4.166  22.884
  230LEFL  Drug 3469  10.231   3.930  22.810
  230LEFL  Drug 3470  10.231   4.226  22.757
  230LEFL  Drug 3471  10.053   4.178  22.608
  231LEFL  Drug 3472  11.607   2.117  26.712
  231LEFL  Drug 3473  11.726   2.356  26.835
  231LEFL  Drug 3474  11.880   2.343  26.720
  231LEFL  Drug 3475  12.028   2.234  26.525
  231LEFL  Drug 3476  12.050   2.172  26.266
  231LEFL  Drug 3477  12.018   2.446  26.146
  231LEFL  Drug 3478  12.217   2.222  26.127
  231LEFL  Drug 3479  12.302   2.342  25.941
  232LEFL  Drug 3480   5.943   1.087  26.877
  232LEFL  Drug 3481   5.742   1.298  26.851
  232LEFL  Drug 3482   5.870   1.432  26.906
  232LEFL  Drug 3483   6.056   1.579  27.022
  232LEFL  Drug 3484   6.116   1.571  27.272
  232LEFL  Drug 3485   6.196   1.295  27.182
  232LEFL  Drug 3486   6.204   1.453  27.437
  232LEFL  Drug 3487   6.352   1.283  27.511
  233LEFL  Drug 3488   7.113   2.310  28.331
  233LEFL  Drug 3489   6.998   2.286  28.063
  233LEFL  Drug 3490   6.865   2.420  28.103
  233LEFL  Drug 3491   6.704   2.623  28.058
  233LEFL  Drug 3492   6.509   2.659  27.890
  233LEFL  Drug 3493   6.228   2.553  27.915
  233LEFL  Drug 3494   6.471   2.491  27.750
  233LEFL  Drug 3495   6.328   2.319  27.670
  234LEFL  Drug 3496  12.372   1.207  25.711
  234LEFL  Drug 3497  12.517   1.340  25.493
  234LEFL  Drug 3498  12.516   1.178  25.389
  234LEFL  Drug 3499  12.674   1.019  25.324
  234LEFL  Drug 3500  12.701   0.778  25.302
  234LEFL  Drug 3501  12.776   0.655  25.566
  234LEFL  Drug 3502  12.597   0.586  25.335
  234LEFL  Drug 3503  12.481   0.453  25.494
  235LEFL  Drug 3504   6.292   4.625  26.818
  235LEFL  Drug 3505   6.348   4.468  26.577
  235LEFL  Drug 3506   6.231   4.327  26.637
  235LEFL  Drug 3507   6.034   4.241  26.492
  235LEFL  Drug 3508   6.011   4.032  26.362
  235LEFL  Drug 3509   6.137   4.171  26.127
  235LEFL  Drug 3510   6.126   3.892  26.235
  235LEFL  Drug 3511   6.196   3.834  26.015
  236LEFL  Drug 3512  12.533   3.564  25.719
  236LEFL  Drug 3513  12.249   3.502  25.683
  236LEFL  Drug 3514  12.219   3.672  25.596
  236LEFL  Drug 3515  12.126   3.786  25.387
  236LEFL  Drug 3516  11.997   3.985  25.310
  236LEFL  Drug 3517  11.900   4.175  25.098
  236LEFL  Drug 3518  11.776   4.005  25.312
  236LEFL  Drug 3519  11.576   4.101  25.228
  237LEFL  Drug 3520   7.107   0.064  26.499
  237LEFL  Drug 3521   6.882  -0.072  26.371
  237LEFL  Drug 3522   6.925   0.008  26.201
  237LEFL  Drug 3523   6.731   0.135  26.102
  237LEFL  Drug 3524   6.708   0.364  26.211
  237LEFL  Drug 3525   6.486   0.408  26.012
  237LEFL  Drug 3526   6.743   0.545  26.086
  237LEFL  Drug 3527   6.661   0.719  25.947
  238LEFL  Drug 3528  11.046   0.921  27.804
  238LEFL  Drug 3529  10.771   1.021  27.815
  238LEFL  Drug 3530  10.701   0.842  27.793
  238LEFL  Drug 3531  10.510   0.671  27.784
  238LEFL  Drug 3532  10.294   0.602  27.869
  238LEFL  Drug 3533  10.130   0.724  27.647
  238LEFL  Drug 3534  10.169   0.771  27.941
  238LEFL  Drug 3535  10.001   0.935  27.909
  239LEFL  Drug 3536  11.318   0.255  21.920
  239LEFL  Drug 3537  11.056   0.264  22.052
  239LEFL  Drug 3538  11.113   0.135  22.183
  239LEFL  Drug 3539  11.129  -0.049  22.356
  239LEFL  Drug 3540  11.270  -0.075  22.553
  239LEFL  Drug 3541  11.250   0.210  22.646
  239LEFL  Drug 3542  11.315  -0.055  22.769
  239LEFL  Drug 3543  11.360   0.072  22.964
  240LEFL  Drug 3544  10.222   2.877  25.630
  240LEFL  Drug 3545  10.276   2.750  25.371
  240LEFL  Drug 3546  10.091   2.765  25.320
  240LEFL  Drug 3547   9.857   2.746  25.279
  240LEFL  Drug 3548   9.687   2.844  25.391
  240LEFL  Drug 3549   9.879   2.957  25.594
  240LEFL  Drug 3550   9.585   2.976  25.537
  240LEFL  Drug 3551   9.594   3.145  25.703
  241LEFL  Drug 3552   9.980  -0.511  22.637
  241LEFL  Drug 3553   9.897  -0.504  22.356
  241LEFL  Drug 3554  10.016  -0.356  22.320
  241LEFL  Drug 3555  10.089  -0.145  22.466
  241LEFL  Drug 3556  10.166  -0.117  22.714
  241LEFL  Drug 3557  10.140   0.067  22.950
  241LEFL  Drug 3558  10.355  -0.008  22.755
  241LEFL  Drug 3559  10.498   0.122  22.892
  242LEFL  Drug 3560   8.998   4.739  27.696
  242LEFL  Drug 3561   9.259   4.871  27.692
  242LEFL  Drug 3562   9.237   4.917  27.506
  242LEFL  Drug 3563   9.107   4.990  27.321
  242LEFL  Drug 3564   9.008   4.897  27.122
  242LEFL  Drug 3565   9.253   4.797  26.977
  242LEFL  Drug 3566   8.961   4.829  26.916
  242LEFL  Drug 3567   9.006   4.680  26.738
  243LEFL  Drug 3568   9.905   3.835  24.042
  243LEFL  Drug 3569  10.182   3.778  24.117
  243LEFL  Drug 3570  10.239   3.952  24.055
  243LEFL  Drug 3571  10.456   4.030  23.994
  243LEFL  Drug 3572  10.627   3.925  23.834
  243LEFL  Drug 3573  10.804   3.933  23.591
  243LEFL  Drug 3574  10.655   3.724  23.744
  243LEFL  Drug 3575  10.682   3.603  23.543
  244LEFL  Drug 3576   8.939   1.261  26.368
  244LEFL  Drug 3577   9.223   1.199  26.329
  244LEFL  Drug 3578   9.259   1.382  26.276
  244LEFL  Drug 3579   9.352   1.575  26.154
  244LEFL  Drug 3580   9.578   1.596  26.074
  244LEFL  Drug 3581   9.799   1.586  25.870
  244LEFL  Drug 3582   9.545   1.740  25.908
  244LEFL  Drug 3583   9.572   1.791  25.678
  245LEFL  Drug 3584   9.306   2.430  24.511
  245LEFL  Drug 3585   9.586   2.448  24.597
  245LEFL  Drug 3586   9.646   2.379  24.427
  245LEFL  Drug 3587   9.790   2.297  24.231
  245LEFL  Drug 3588   9.971   2.381  24.072
  245LEFL  Drug 3589  10.220   2.530  23.991
  245LEFL  Drug 3590   9.944   2.489  23.880
  245LEFL  Drug 3591  10.024   2.617  23.697
  246LEFL  Drug 3592  12.156   2.222  23.669
  246LEFL  Drug 3593  12.330   2.439  23.761
  246LEFL  Drug 3594  12.266   2.419  23.942
  246LEFL  Drug 3595  12.362   2.427  24.162
  246LEFL  Drug 3596  12.579   2.372  24.294
  246LEFL  Drug 3597  12.634   2.155  24.495
  246LEFL  Drug 3598  12.736   2.432  24.439
  246LEFL  Drug 3599  12.886   2.378  24.615
  247LEFL  Drug 3600  10.285   2.992  25.119
  247LEFL  Drug 3601  10.072   2.993  24.918
  247LEFL  Drug 3602  10.002   3.160  24.988
  247LEFL  Drug 3603  10.048   3.393  24.949
  247LEFL  Drug 3604  10.077   3.619  24.857
  247LEFL  Drug 3605   9.994   3.497  24.595
  247LEFL  Drug 3606  10.050   3.772  24.699
  247LEFL  Drug 3607  10.013   3.845  24.476
  248LEFL  Drug 3608  11.832   5.196  26.402
  248LEFL  Drug 3609  11.814   4.914  26.480
  248LEFL  Drug 3610  11.771   4.963  26.661
  248LEFL  Drug 3611  11.759   5.104  26.862
  248LEFL  Drug 3612  11.862   5.206  27.055
  248LEFL  Drug 3613  11.959   5.471  27.160
  248LEFL  Drug 3614  12.020   5.181  27.209
  248LEFL  Drug 3615  12.159   5.264  27.382
  249LEFL  Drug 3616   9.688   5.240  23.588
  249LEFL  Drug 3617   9.663   5.028  23.788
  249LEFL  Drug 3618   9.635   4.896  23.650
  249LEFL  Drug 3619   9.583   4.704  23.532
  249LEFL  Drug 3620   9.643   4.460  23.478
  249LEFL  Drug 3621   9.943   4.450  23.498
  249LEFL  Drug 3622   9.712   4.287  23.599
  249LEFL  Drug 3623   9.876   4.137  23.681
  250LEFL  Drug 3624   5.289   2.067  25.680
  250LEFL  Drug 3625   5.580   2.096  25.699
  250LEFL  Drug 3626   5.563   2.201  25.860
  250LEFL  Drug 3627   5.717   2.370  26.003
  250LEFL  Drug 3628   5.925   2.469  25.948
  250LEFL  Drug 3629   6.203   2.573  25.999
  250LEFL  Drug 3630   6.007   2.575  25.772
  250LEFL  Drug 3631   6.170   2.710  25.664
  255LEFL  Drug 3632  10.769   0.384  21.374
  255LEFL  Drug 3633  10.839   0.618  21.537
  255LEFL  Drug 3634  10.660   0.624  21.610
  255LEFL  Drug 3635  10.613   0.872  21.659
  255LEFL  Drug 3636  10.405   0.986  21.626
  255LEFL  Drug 3637  10.179   0.934  21.434
  255LEFL  Drug 3638  10.280   1.166  21.595
  255LEFL  Drug 3639  10.118   1.297  21.481
  257LEFL  Drug 3640   6.952   2.261  22.368
  257LEFL  Drug 3641   6.930   2.383  22.103
  257LEFL  Drug 3642   6.774   2.276  22.063
  257LEFL  Drug 3643   6.676   2.058  22.133
  257LEFL  Drug 3644   6.832   1.875  22.201
  257LEFL  Drug 3645   6.939   1.875  22.482
  257LEFL  Drug 3646   7.013   1.750  22.220
  257LEFL  Drug 3647   7.147   1.603  22.350
  258LEFL  Drug 3648   7.067   1.011  23.510
  258LEFL  Drug 3649   6.948   0.916  23.760
  258LEFL  Drug 3650   7.123   0.886  23.836
  258LEFL  Drug 3651   7.351   0.986  23.890
  258LEFL  Drug 3652   7.557   1.026  23.750
  258LEFL  Drug 3653   7.700   0.877  23.531
  258LEFL  Drug 3654   7.771   0.992  23.799
  258LEFL  Drug 3655   7.988   0.910  23.751
  259LEFL  Drug 3656  12.107   2.185  22.892
  259LEFL  Drug 3657  12.106   2.424  22.723
  259LEFL  Drug 3658  12.060   2.535  22.874
  259LEFL  Drug 3659  12.060   2.757  22.915
  259LEFL  Drug 3660  12.068   2.810  23.152
  259LEFL  Drug 3661  12.311   2.776  23.327
  259LEFL  Drug 3662  12.017   2.721  23.349
  259LEFL  Drug 3663  12.073   2.649  23.568
  260LEFL  Drug 3664  10.133   2.740  25.946
  260LEFL  Drug 3665  10.394   2.869  25.980
  260LEFL  Drug 3666  10.485   2.700  25.952
  260LEFL  Drug 3667  10.501   2.501  26.101
  260LEFL  Drug 3668  10.667   2.312  26.072
  260LEFL  Drug 3669  10.564   2.114  26.274
  260LEFL  Drug 3670  10.785   2.124  26.072
  260LEFL  Drug 3671  10.836   1.913  26.166
  261LEFL  Drug 3672  11.523   0.877  21.854
  261LEFL  Drug 3673  11.503   0.594  21.927
  261LEFL  Drug 3674  11.311   0.599  21.910
  261LEFL  Drug 3675  11.076   0.689  21.870
  261LEFL  Drug 3676  10.834   0.649  21.938
  261LEFL  Drug 3677  10.590   0.734  22.091
  261LEFL  Drug 3678  10.851   0.600  22.154
  261LEFL  Drug 3679  10.756   0.551  22.366
  262LEFL  Drug 3680   8.774   1.100  26.968
  262LEFL  Drug 3681   8.626   1.064  26.718
  262LEFL  Drug 3682   8.486   0.970  26.810
  262LEFL  Drug 3683   8.359   0.778  26.759
  262LEFL  Drug 3684   8.112   0.731  26.742
  262LEFL  Drug 3685   8.009   0.868  26.989
  262LEFL  Drug 3686   8.098   0.592  26.914
  262LEFL  Drug 3687   8.098   0.556  27.149
  263LEFL  Drug 3688   8.142   0.568  23.951
  263LEFL  Drug 3689   7.964   0.463  24.159
  263LEFL  Drug 3690   8.115   0.413  24.268
  263LEFL  Drug 3691   8.355   0.366  24.350
  263LEFL  Drug 3692   8.595   0.372  24.277
  263LEFL  Drug 3693   8.832   0.414  24.096
  263LEFL  Drug 3694   8.774   0.441  24.389
  263LEFL  Drug 3695   8.998   0.516  24.404
  264LEFL  Drug 3696  11.980   0.337  26.178
  264LEFL  Drug 3697  12.091   0.174  26.395
  264LEFL  Drug 3698  11.916   0.158  26.476
  264LEFL  Drug 3699  11.779   0.194  26.687
  264LEFL  Drug 3700  11.625   0.388  26.767
  264LEFL  Drug 3701  11.361   0.302  26.651
  264LEFL  Drug 3702  11.487   0.560  26.740
  264LEFL  Drug 3703  11.291   0.654  26.645
  265LEFL  Drug 3704   8.500   4.053  21.918
  265LEFL  Drug 3705   8.276   4.050  21.728
  265LEFL  Drug 3706   8.354   3.900  21.634
  265LEFL  Drug 3707   8.457   3.672  21.683
  265LEFL  Drug 3708   8.378   3.506  21.838
  265LEFL  Drug 3709   8.432   3.224  21.747
  265LEFL  Drug 3710   8.255   3.359  21.949
  265LEFL  Drug 3711   8.235   3.146  22.052
  266LEFL  Drug 3712  11.623   1.639  27.306
  266LEFL  Drug 3713  11.620   1.833  27.525
  266LEFL  Drug 3714  11.427   1.825  27.534
  266LEFL  Drug 3715  11.274   2.018  27.485
  266LEFL  Drug 3716  11.180   2.147  27.299
  266LEFL  Drug 3717  10.938   2.326  27.314
  266LEFL  Drug 3718  11.101   2.198  27.097
  266LEFL  Drug 3719  10.918   2.264  26.963
  267LEFL  Drug 3720   5.545   1.274  25.971
  267LEFL  Drug 3721   5.773   1.394  26.112
  267LEFL  Drug 3722   5.789   1.531  25.976
  267LEFL  Drug 3723   5.686   1.693  25.796
  267LEFL  Drug 3724   5.564   1.664  25.597
  267LEFL  Drug 3725   5.369   1.534  25.408
  267LEFL  Drug 3726   5.666   1.574  25.421
  267LEFL  Drug 3727   5.668   1.486  25.201
  268LEFL  Drug 3728   7.526   2.596  23.727
  268LEFL  Drug 3729   7.598   2.316  23.772
  268LEFL  Drug 3730   7.582   2.277  23.584
  268LEFL  Drug 3731   7.556   2.102  23.420
  268LEFL  Drug 3732   7.669   2.003  23.239
  268LEFL  Drug 3733   7.809   1.738  23.269
  268LEFL  Drug 3734   7.538   1.833  23.180
  268LEFL  Drug 3735   7.503   1.600  23.156
  269LEFL  Drug 3736   5.061   1.050  25.802
  269LEFL  Drug 3737   5.164   0.994  25.533
  269LEFL  Drug 3738   5.080   1.154  25.464
  269LEFL  Drug 3739   5.094   1.279  25.266
  269LEFL  Drug 3740   5.071   1.345  25.023
  269LEFL  Drug 3741   5.356   1.330  24.928
  269LEFL  Drug 3742   5.086   1.366  24.802
  269LEFL  Drug 3743   5.222   1.406  24.612
  270LEFL  Drug 3744   7.121   2.804  26.284
  270LEFL  Drug 3745   7.325   2.595  26.305
  270LEFL  Drug 3746   7.191   2.463  26.349
  270LEFL  Drug 3747   7.123   2.295  26.195
  270LEFL  Drug 3748   7.077   2.328  25.954
  270LEFL  Drug 3749   6.889   2.120  25.845
  270LEFL  Drug 3750   7.112   2.291  25.738
  270LEFL  Drug 3751   7.023   2.228  25.527
  25.25417  25.25417  25.25417   0.00000   0.00000   0.00000   0.00000   0.00000   0.00000
