W
  400
    1W      W    1   1.062   2.577   2.977  0.0393 -0.3707  0.1378
    2W      W    2   0.919   1.045   0.992  0.3021  0.2025 -0.1842
    3W      W    3   2.995   0.907   0.035 -0.0597  0.0460  0.0334
    4W      W    4   3.251   1.766   0.852 -0.0876  0.1618 -0.2329
    5W      W    5   0.207   0.740   1.309  0.0925  0.1802 -0.1032
    6W      W    6   2.672   3.196   1.041  0.2214 -0.0690  0.0261
    7W      W    7   0.748   0.094   3.013 -0.2908  0.2624 -0.0985
    8W      W    8   2.699   2.768   2.060 -0.2985 -0.0987  0.0918
    9W      W    9   3.227   3.252   2.446 -0.0479  0.2073 -0.0145
   10W      W   10   2.344   2.085   0.106 -0.3592 -0.2354  0.2105
   11W      W   11   1.560   1.121   2.648  0.0772 -0.1456 -0.2262
   12W      W   12   1.315   2.903   2.705  0.1957 -0.4409 -0.0697
   13W      W   13   1.531   0.120   0.858  0.1522 -0.0404 -0.1339
   14W      W   14   0.167   0.067   2.135 -0.1373  0.0764 -0.2310
   15W      W   15   2.838   1.614   2.401 -0.1459 -0.1817 -0.0581
   16W      W   16   0.375   1.900   0.915 -0.1687 -0.1435  0.3634
   17W      W   17   1.002   1.189   2.407  0.0816 -0.0894  0.0099
   18W      W   18   1.392   1.027   1.111  0.3511  0.0163 -0.1164
   19W      W   19   2.004   3.566   1.520 -0.0183  0.2468  0.2187
   20W      W   20   1.461   0.623   2.909 -0.5704  0.1809 -0.1922
   21W      W   21   2.176   0.241   3.319 -0.0098 -0.2448 -0.1356
   22W      W   22   1.859   2.934   0.857 -0.1179  0.0200  0.0230
   23W      W   23   0.387   1.493   0.122 -0.1624  0.0263  0.0875
   24W      W   24   0.135   1.416   2.098 -0.3669  0.0186  0.0730
   25W      W   25   1.034   1.694   2.548  0.0152  0.2153 -0.3214
   26W      W   26   2.625   0.770   1.994  0.0536  0.2215 -0.2893
   27W      W   27   3.002   1.717   1.724 -0.0356  0.1388 -0.0612
   28W      W   28   1.515   3.289   1.922 -0.2442  0.2863  0.1779
   29W      W   29   2.077   3.296   1.922  0.0707 -0.0539  0.5928
   30W      W   30   2.876   1.319   3.312 -0.1382 -0.1401  0.1408
   31W      W   31   0.310   2.289   1.483 -0.2507 -0.0026  0.1464
   32W      W   32   0.048   3.587   1.608  0.0481 -0.1734 -0.1414
   33W      W   33   1.257   2.942   1.109  0.1680  0.1541 -0.1422
   34W      W   34   3.507   2.684   1.217  0.1218  0.1339  0.0686
   35W      W   35   3.004   3.110   2.984  0.3070  0.3801  0.1375
   36W      W   36   1.336   3.613   3.307  0.1941  0.0168  0.2323
   37W      W   37   0.479   2.788   0.400 -0.0961  0.1612 -0.0205
   38W      W   38   2.059   3.403   3.193 -0.0798 -0.0795 -0.0913
   39W      W   39   1.064   3.105   3.077  0.0306 -0.0954 -0.2076
   40W      W   40   1.908   1.839   2.410 -0.0562  0.0810  0.1921
   41W      W   41   2.007   1.718   1.441  0.0331 -0.2814 -0.1243
   42W      W   42   1.454   3.002   0.576  0.0607 -0.0481  0.0090
   43W      W   43   1.962   2.392   1.691 -0.0487 -0.2016  0.1914
   44W      W   44   1.222   2.358   3.564 -0.0072  0.2745  0.0553
   45W      W   45   0.422   2.775   1.885 -0.1174 -0.2796  0.0966
   46W      W   46   3.432   0.789   3.523  0.3251 -0.1750 -0.2009
   47W      W   47   0.821   3.177   0.349 -0.0155 -0.0127 -0.0286
   48W      W   48   2.841   1.362   0.203  0.4915  0.0229  0.0885
   49W      W   49   1.513   0.920   0.037 -0.4090 -0.0558 -0.0839
   50W      W   50   2.895   0.953   0.648  0.0793 -0.2063  0.1691
   51W      W   51   1.610   0.112   1.705  0.1033  0.2206  0.2930
   52W      W   52   1.011   3.474   1.949 -0.2359 -0.0394  0.2025
   53W      W   53   1.311   0.621   2.393 -0.0508 -0.1190  0.0609
   54W      W   54   3.185   2.531   2.968  0.1551 -0.1474  0.2072
   55W      W   55   1.816   1.601   0.971  0.0802  0.0335  0.2221
   56W      W   56   2.457   1.174   2.358  0.0110  0.0227  0.2409
   57W      W   57   0.799   2.905   2.667 -0.1296  0.0566 -0.0177
   58W      W   58   0.478   1.434   1.579 -0.1344  0.2279  0.2532
   59W      W   59   3.196   3.140   0.309  0.0791 -0.4026  0.0941
   60W      W   60   3.438   3.132   1.510 -0.1181 -0.0022  0.0805
   61W      W   61   2.351   3.096   0.302 -0.1227 -0.2044 -0.2387
   62W      W   62   0.663   1.479   1.071 -0.0358  0.2735 -0.5146
   63W      W   63   0.274   2.076   3.205  0.0332  0.0414 -0.1607
   64W      W   64   0.386   1.572   3.291  0.1526 -0.1884 -0.0018
   65W      W   65   1.003   0.123   0.050 -0.0663  0.1045  0.0690
   66W      W   66   3.620   2.525   3.211 -0.1727  0.1155 -0.0772
   67W      W   67   0.119   2.991   3.160 -0.4341  0.0992 -0.1759
   68W      W   68   3.331   0.648   1.415  0.0391 -0.0504  0.0289
   69W      W   69   1.364   2.224   1.909 -0.0947 -0.3082  0.0317
   70W      W   70   3.036   2.759   2.438  0.1711 -0.2989 -0.1510
   71W      W   71   2.798   2.351   0.164 -0.1780  0.2298 -0.1327
   72W      W   72   2.783   0.315   1.956  0.1915 -0.2949  0.1739
   73W      W   73   2.583   0.300   2.487 -0.0179 -0.0585 -0.3617
   74W      W   74   1.001   1.934   0.179 -0.2272  0.2248  0.0697
   75W      W   75   1.433   2.009   0.887  0.1996  0.1133  0.0894
   76W      W   76   3.445   2.882   2.737 -0.0528 -0.0439 -0.0311
   77W      W   77   3.256   1.737   0.228 -0.2541  0.0114 -0.3673
   78W      W   78   0.568   3.259   2.203 -0.1948 -0.0081 -0.3187
   79W      W   79   1.550   1.085   3.164  0.1258  0.2217 -0.2027
   80W      W   80   1.908   2.842   3.504  0.1893 -0.1704  0.4194
   81W      W   81   0.519   3.532   0.191  0.1022 -0.0115 -0.0052
   82W      W   82   0.093   2.293   1.951  0.1325  0.0893 -0.3050
   83W      W   83   0.469   2.355   0.653  0.3939  0.1670 -0.0807
   84W      W   84   0.140   0.486   2.609  0.0935 -0.0741 -0.0548
   85W      W   85   1.168   2.517   2.432 -0.1944  0.2315  0.0656
   86W      W   86   3.135   0.572   0.905  0.2134 -0.2730  0.1009
   87W      W   87   0.543   0.553   2.962  0.0957  0.2992 -0.2353
   88W      W   88   3.219   0.195   1.684 -0.0176 -0.1303 -0.0290
   89W      W   89   0.627   2.394   1.149 -0.0426  0.0441  0.0820
   90W      W   90   3.357   3.560   1.293  0.0534 -0.1122  0.2636
   91W      W   91   3.304   1.282   0.665  0.0522  0.0611  0.3770
   92W      W   92   2.724   2.807   0.054 -0.1570 -0.2707 -0.3784
   93W      W   93   0.260   1.379   2.587 -0.1346  0.2350 -0.0654
   94W      W   94   0.630   1.007   1.434  0.0503 -0.0995  0.1818
   95W      W   95   0.758   0.690   3.422  0.0077 -0.0084 -0.0893
   96W      W   96   0.425   0.592   2.178  0.0030  0.0879  0.0954
   97W      W   97   3.111   1.702   3.065  0.2574  0.1599  0.2172
   98W      W   98   0.363   0.170   0.554 -0.1366 -0.1747 -0.0139
   99W      W   99   2.778   1.070   1.472 -0.0731  0.0465 -0.0806
  100W      W  100   1.305   1.641   1.227  0.1795 -0.2101 -0.2582
  101W      W  101   0.091   2.251   1.059  0.0908  0.1464  0.0811
  102W      W  102   3.034   0.585   3.270 -0.0296  0.3045  0.3034
  103W      W  103   2.236   3.334   0.762  0.0835  0.1858 -0.3556
  104W      W  104   3.482   3.386   2.984 -0.2113 -0.3334 -0.2009
  105W      W  105   2.981   3.443   1.528  0.1640  0.1482 -0.2032
  106W      W  106   0.958   0.872   2.977  0.1987  0.0089  0.1844
  107W      W  107   0.657   0.773   0.605  0.0156 -0.1423  0.0296
  108W      W  108   0.527   3.591   1.843  0.0983 -0.0273 -0.2204
  109W      W  109   1.550   2.747   1.807  0.5064  0.2715 -0.1817
  110W      W  110   1.179   0.644   0.763  0.0757 -0.1268 -0.1222
  111W      W  111   3.349   3.494   2.042 -0.0958 -0.1687  0.0046
  112W      W  112   2.000   2.110   1.114  0.3635  0.0055  0.2229
  113W      W  113   0.548   2.414   2.840 -0.0389  0.0867 -0.0699
  114W      W  114   2.646   0.377   3.004 -0.0623  0.0594  0.0303
  115W      W  115   3.433   1.840   2.681 -0.2411  0.1531  0.1299
  116W      W  116   2.531   1.579   1.598 -0.0156  0.2398 -0.2185
  117W      W  117   0.523   0.456   0.199 -0.1814 -0.1439 -0.0217
  118W      W  118   2.471   3.443   1.501 -0.1569 -0.0400  0.2773
  119W      W  119   0.378   3.321   0.611  0.0500  0.0427 -0.2622
  120W      W  120   0.139   1.816   1.362 -0.3760 -0.0959  0.3159
  121W      W  121   1.789   3.081   1.527  0.1518  0.2107 -0.1063
  122W      W  122   3.142   0.701   1.900 -0.0926 -0.3288 -0.0769
  123W      W  123   0.094   1.843   3.615 -0.0326 -0.0889  0.1331
  124W      W  124   2.430   1.327   3.187  0.1648 -0.3010 -0.0420
  125W      W  125   0.489   1.327   0.588  0.0945 -0.3304 -0.0417
  126W      W  126   0.608   2.875   3.155  0.0030 -0.1029 -0.2970
  127W      W  127   2.439   0.260   1.268 -0.2094 -0.2213  0.0399
  128W      W  128   3.344   0.779   0.449 -0.0347 -0.1047 -0.3029
  129W      W  129   2.177   2.161   3.275  0.2867  0.3260 -0.1483
  130W      W  130   3.233   2.362   0.975 -0.2635  0.0580  0.1688
  131W      W  131   2.483   0.878   0.186  0.1670  0.3027  0.1268
  132W      W  132   2.252   0.434   0.222 -0.0900  0.2260 -0.0675
  133W      W  133   0.355   2.612   3.531  0.2110 -0.0332  0.1670
  134W      W  134   2.085   2.647   1.164  0.2492  0.2401  0.0931
  135W      W  135   1.766   2.499   2.169 -0.2389  0.3880 -0.3663
  136W      W  136   1.964   0.903   0.306 -0.1246  0.1046 -0.1018
  137W      W  137   3.643   3.094   0.983  0.4055  0.0257  0.0038
  138W      W  138   0.317   2.415   2.316  0.0615  0.0742  0.1051
  139W      W  139   2.382   2.552   3.507  0.0872  0.5244 -0.1748
  140W      W  140   2.657   2.976   1.552  0.2182  0.1268 -0.3453
  141W      W  141   1.638   0.300   2.581 -0.0707 -0.3137 -0.0412
  142W      W  142   1.411   1.436   0.078 -0.1501 -0.1553  0.0447
  143W      W  143   1.973   0.447   1.536  0.1311  0.3091 -0.2686
  144W      W  144   0.038   3.548   0.238  0.1125  0.1274  0.0993
  145W      W  145   2.974   0.597   2.363 -0.1953  0.2591  0.2656
  146W      W  146   2.248   0.458   2.185 -0.0659 -0.3459  0.2344
  147W      W  147   1.701   0.209   3.082  0.1769  0.2572  0.0170
  148W      W  148   3.368   1.509   3.460  0.3512 -0.0633  0.2180
  149W      W  149   2.759   1.554   0.722  0.0653 -0.0074 -0.1758
  150W      W  150   2.347   1.672   2.174 -0.0435 -0.2912 -0.3208
  151W      W  151   0.899   1.470   0.094 -0.0197 -0.2100  0.0220
  152W      W  152   2.046   0.616   2.994  0.0928  0.2234  0.0814
  153W      W  153   0.704   1.894   3.013 -0.2975 -0.0463 -0.1021
  154W      W  154   0.424   3.333   2.857  0.0348  0.3438  0.1404
  155W      W  155   2.722   2.729   3.229 -0.2810 -0.1984 -0.2017
  156W      W  156   2.548   2.092   1.348  0.1304 -0.1882  0.2901
  157W      W  157   2.040   0.897   3.425  0.2013 -0.1020  0.0453
  158W      W  158   1.859   0.621   0.766  0.0705 -0.0198  0.1211
  159W      W  159   1.092   3.450   0.787 -0.4075  0.2458  0.0600
  160W      W  160   1.421   2.388   0.399  0.2574  0.1716  0.2843
  161W      W  161   1.376   0.174   2.152 -0.0259  0.2590 -0.2065
  162W      W  162   1.703   2.950   2.290  0.2898 -0.0491 -0.0889
  163W      W  163   1.371   2.806   0.088  0.1180 -0.4760  0.0584
  164W      W  164   2.545   2.319   2.952 -0.1715 -0.0999  0.0834
  165W      W  165   0.777   3.129   1.048 -0.0073 -0.0900 -0.1196
  166W      W  166   3.042   0.095   2.349 -0.4210 -0.0225  0.0281
  167W      W  167   0.055   3.167   1.986 -0.1986 -0.1082 -0.1426
  168W      W  168   1.024   1.139   0.412 -0.1129  0.0641  0.0808
  169W      W  169   0.029   1.511   0.969 -0.1325 -0.0882  0.0835
  170W      W  170   2.859   0.496   1.504  0.2304  0.2458  0.3734
  171W      W  171   3.171   2.196   0.530  0.1791  0.0139 -0.3346
  172W      W  172   0.643   0.795   2.560  0.1154 -0.2607 -0.2910
  173W      W  173   1.773   0.586   2.011 -0.0008  0.2791 -0.1256
  174W      W  174   0.096   3.237   2.471  0.0031  0.2435 -0.2349
  175W      W  175   2.413   1.800   2.728  0.1661 -0.3007  0.1628
  176W      W  176   2.731   0.478   0.446 -0.0680 -0.2174 -0.1233
  177W      W  177   2.586   2.695   2.653  0.3591 -0.0631 -0.3040
  178W      W  178   1.460   1.907   3.573 -0.1041  0.2329 -0.0975
  179W      W  179   0.183   0.950   0.319 -0.2110  0.2858 -0.1657
  180W      W  180   3.413   1.271   2.621  0.0764  0.0286  0.2811
  181W      W  181   1.333   1.139   1.621 -0.1886  0.2459  0.5092
  182W      W  182   0.272   2.900   1.432 -0.1744  0.0016 -0.1299
  183W      W  183   2.225   3.145   2.386 -0.1803 -0.1590  0.1658
  184W      W  184   0.884   1.626   0.586 -0.3425  0.4398  0.2531
  185W      W  185   0.835   2.786   1.365 -0.3319  0.2099 -0.0921
  186W      W  186   1.094   1.113   3.458 -0.3627 -0.3038 -0.0001
  187W      W  187   2.961   2.081   2.777 -0.0817 -0.2138 -0.1702
  188W      W  188   1.481   1.046   2.108 -0.0956  0.1426  0.1229
  189W      W  189   1.051   0.701   1.350 -0.0383 -0.2113 -0.1024
  190W      W  190   1.794   1.447   1.807  0.0329  0.1545  0.1290
  191W      W  191   2.738   2.225   2.374 -0.1892 -0.3307  0.0686
  192W      W  192   1.996   1.199   2.951  0.0244  0.3302 -0.1892
  193W      W  193   0.879   2.807   3.590  0.0888  0.1419 -0.1809
  194W      W  194   1.883   0.075   2.182 -0.0534  0.2953 -0.0182
  195W      W  195   3.633   3.547   0.757  0.0278 -0.2319 -0.1160
  196W      W  196   2.586   1.826   3.207 -0.0187 -0.3209 -0.0689
  197W      W  197   0.976   2.272   0.669  0.0236  0.1298 -0.2078
  198W      W  198   0.006   1.903   2.227 -0.1068 -0.2858  0.1234
  199W      W  199   1.227   2.440   1.046 -0.1392 -0.1569 -0.0597
  200W      W  200   1.979   0.814   2.546 -0.3150 -0.2037  0.1840
  201W      W  201   0.756   2.699   2.224  0.0677 -0.0677  0.0723
  202W      W  202   1.025   2.796   0.611 -0.0172 -0.0191 -0.2647
  203W      W  203   0.255   2.814   2.665  0.1461  0.0657  0.0898
  204W      W  204   3.262   0.257   0.503 -0.0686  0.2341  0.0405
  205W      W  205   2.340   2.549   0.373  0.1836 -0.0802  0.0277
  206W      W  206   1.787   0.968   1.549  0.2118 -0.2013  0.2612
  207W      W  207   3.439   0.641   3.021 -0.1480  0.0364  0.4136
  208W      W  208   2.654   1.944   0.450  0.1252 -0.2194 -0.1176
  209W      W  209   2.680   0.478   3.583  0.1054  0.0363 -0.1475
  210W      W  210   1.006   0.409   2.719  0.0081 -0.1274 -0.0818
  211W      W  211   3.088   2.518   1.487 -0.0347  0.1638  0.1361
  212W      W  212   0.196   0.940   2.938 -0.1838 -0.0494  0.0535
  213W      W  213   2.292   3.518   3.639  0.1677 -0.0515 -0.0621
  214W      W  214   0.594   1.923   3.572  0.0030  0.2071  0.0696
  215W      W  215   2.174   0.772   1.149  0.1386  0.0312 -0.2494
  216W      W  216   0.868   0.226   0.554  0.4089 -0.1698  0.4730
  217W      W  217   1.439   2.107   2.389 -0.0180 -0.0827 -0.1494
  218W      W  218   3.145   2.490   2.051 -0.0909  0.0033 -0.0744
  219W      W  219   1.845   2.373   0.730 -0.1130 -0.2216 -0.0874
  220W      W  220   3.243   1.192   1.733 -0.0868 -0.1250 -0.0448
  221W      W  221   0.747   2.142   2.423 -0.0312  0.2808 -0.0052
  222W      W  222   2.770   1.639   1.197  0.1474 -0.2120  0.1988
  223W      W  223   1.964   1.891   0.629 -0.0194  0.0803  0.1392
  224W      W  224   1.100   2.114   1.484 -0.0035  0.0115  0.2612
  225W      W  225   1.160   0.450   3.286  0.2004 -0.3281 -0.1473
  226W      W  226   2.852   2.196   1.855  0.0645 -0.3355 -0.0444
  227W      W  227   2.378   0.694   1.579  0.0132  0.2474  0.0632
  228W      W  228   2.439   0.798   2.760  0.0934  0.1806  0.0625
  229W      W  229   2.833   1.386   2.826  0.3449 -0.1487  0.1187
  230W      W  230   1.573   1.580   3.253  0.1170 -0.0482  0.0029
  231W      W  231   0.282   0.678   3.504  0.0715  0.0268 -0.3209
  232W      W  232   2.851   3.597   2.806 -0.0660 -0.1378  0.0751
  233W      W  233   3.469   1.196   0.191  0.0089 -0.1276  0.2457
  234W      W  234   3.384   0.783   2.578 -0.3153 -0.2111  0.0992
  235W      W  235   3.339   1.658   1.314 -0.1792  0.2133 -0.0730
  236W      W  236   2.386   1.320   0.513  0.1490 -0.1015 -0.2431
  237W      W  237   0.545   1.081   1.922 -0.1293 -0.1870  0.0196
  238W      W  238   2.883   1.797   3.594  0.0970  0.3154 -0.0251
  239W      W  239   1.070   0.627   0.155  0.2084  0.0338 -0.1968
  240W      W  240   2.604   0.878   3.321 -0.0602  0.3981 -0.1239
  241W      W  241   1.911   3.305   0.401  0.0341 -0.1813  0.0942
  242W      W  242   2.502   2.486   1.662 -0.0994  0.0375 -0.0404
  243W      W  243   2.541   1.118   0.972  0.0486 -0.3427  0.0029
  244W      W  244   0.079   0.963   1.776 -0.3501  0.3614  0.0345
  245W      W  245   0.751   3.422   3.401 -0.1549  0.1677  0.2370
  246W      W  246   0.623   1.012   0.149 -0.0470 -0.0216  0.1042
  247W      W  247   1.478   1.816   0.420 -0.0055 -0.2401  0.0021
  248W      W  248   2.133   2.616   2.462  0.2248 -0.2029  0.3030
  249W      W  249   3.321   2.195   3.630  0.0253 -0.0768 -0.0118
  250W      W  250   1.930   0.138   0.520  0.1403  0.0072 -0.2469
  251W      W  251   3.254   1.166   3.088 -0.5368 -0.1286 -0.0720
  252W      W  252   0.342   2.776   0.910  0.0917  0.1873 -0.2115
  253W      W  253   2.336   0.162   1.771 -0.1331  0.2624  0.1446
  254W      W  254   0.935   3.379   2.559 -0.0459 -0.1242  0.0065
  255W      W  255   0.088   2.317   2.743  0.1898  0.1555  0.2063
  256W      W  256   1.182   3.118   1.558  0.1825 -0.1396  0.1115
  257W      W  257   2.084   0.325   2.620  0.0858 -0.3037 -0.2057
  258W      W  258   2.748   1.316   2.000 -0.0696 -0.2768  0.0524
  259W      W  259   1.862   1.965   1.915 -0.1148  0.0943 -0.1521
  260W      W  260   3.611   1.544   3.039 -0.0469  0.1728 -0.2564
  261W      W  261   2.210   2.630   3.046 -0.0038 -0.2500 -0.1125
  262W      W  262   0.898   1.970   1.980 -0.0195  0.2736 -0.3661
  263W      W  263   2.473   3.058   2.944 -0.0239  0.0334  0.1087
  264W      W  264   3.489   2.173   1.562  0.0336 -0.1321 -0.2879
  265W      W  265   1.004   2.619   1.804 -0.0235  0.2586  0.1237
  266W      W  266   0.079   1.157   3.351 -0.2462  0.2996 -0.2585
  267W      W  267   1.949   1.828   3.576  0.1126 -0.3179 -0.0690
  268W      W  268   2.334   2.004   1.807 -0.2096  0.2088  0.0967
  269W      W  269   1.068   0.240   1.061 -0.0683  0.0944 -0.0188
  270W      W  270   1.905   2.803   0.349  0.0002 -0.2435 -0.1076
  271W      W  271   0.445   3.086   3.614  0.2090 -0.0494  0.0570
  272W      W  272   0.341   1.908   2.673 -0.0816  0.2007  0.1876
  273W      W  273   0.628   3.635   0.883  0.0898 -0.0934  0.2095
  274W      W  274   2.783   2.570   0.639  0.2505  0.1485 -0.1457
  275W      W  275   2.376   2.258   0.788 -0.0485  0.0353  0.0275
  276W      W  276   2.377   3.583   2.183  0.0449  0.0859 -0.2394
  277W      W  277   1.495   0.968   0.537  0.1268 -0.0630  0.2345
  278W      W  278   0.728   3.168   1.710 -0.3854 -0.0742  0.1488
  279W      W  279   0.038   2.992   0.412  0.2193  0.2259  0.0353
  280W      W  280   2.787   3.064   0.538  0.3567 -0.1632  0.1880
  281W      W  281   0.821   3.534   1.381  0.0169  0.0656  0.1363
  282W      W  282   3.203   2.859   3.361 -0.1353  0.1682 -0.1170
  283W      W  283   3.159   0.403   0.056  0.0448 -0.1918  0.3051
  284W      W  284   3.498   1.727   1.790 -0.1807  0.1604  0.0715
  285W      W  285   3.494   0.934   0.973  0.1344  0.1260  0.0542
  286W      W  286   2.339   3.022   3.405 -0.0696 -0.1278 -0.0016
  287W      W  287   1.420   1.518   2.258  0.0111 -0.0720  0.0464
  288W      W  288   1.631   0.477   0.298  0.3348 -0.0640  0.1373
  289W      W  289   1.011   1.603   3.290 -0.1515 -0.1034 -0.0552
  290W      W  290   3.560   0.209   3.474 -0.0009 -0.1699  0.1331
  291W      W  291   0.240   3.439   3.359  0.0875 -0.2305  0.4813
  292W      W  292   3.095   3.400   0.799  0.3091 -0.1694  0.2485
  293W      W  293   0.366   1.050   0.923  0.0663 -0.0898 -0.2487
  294W      W  294   1.364   1.706   1.737 -0.1557 -0.2328 -0.3697
  295W      W  295   3.481   0.117   2.573  0.1254  0.1015  0.0565
  296W      W  296   1.759   2.416   0.035  0.2916  0.0035  0.1857
  297W      W  297   2.179   1.054   1.894 -0.0881 -0.1970 -0.0412
  298W      W  298   1.341   3.482   1.257  0.1341 -0.2802  0.0750
  299W      W  299   1.171   3.044   2.177  0.1097  0.0926 -0.7562
  300W      W  300   1.434   3.421   2.384 -0.0801 -0.2292 -0.0570
  301W      W  301   0.193   0.592   0.768  0.0783 -0.0361 -0.2173
  302W      W  302   3.607   1.205   1.351  0.0335  0.3144  0.1042
  303W      W  303   1.158   1.320   2.936 -0.3149 -0.1743  0.1929
  304W      W  304   3.116   0.352   2.804 -0.0349  0.1243 -0.1496
  305W      W  305   0.948   1.481   1.467 -0.0822 -0.0447 -0.3326
  306W      W  306   3.047   1.266   1.070 -0.0898 -0.1418 -0.3594
  307W      W  307   2.024   2.171   2.741  0.3353 -0.0140  0.1825
  308W      W  308   0.668   1.447   2.834  0.1057  0.2665 -0.0837
  309W      W  309   1.897   1.438   0.288 -0.0211  0.2263  0.3307
  310W      W  310   3.379   2.095   3.122  0.0579 -0.1345  0.0810
  311W      W  311   2.413   1.608   0.056  0.0577  0.2520  0.3857
  312W      W  312   2.586   3.579   3.260  0.1141 -0.0769  0.1615
  313W      W  313   0.619   0.531   1.731 -0.1810  0.0040  0.2049
  314W      W  314   2.342   0.774   0.683 -0.0080 -0.3619  0.1781
  315W      W  315   0.645   1.861   1.429  0.5172 -0.0296 -0.0032
  316W      W  316   1.588   1.593   2.744 -0.0608 -0.4626 -0.0215
  317W      W  317   2.883   3.189   3.441  0.3331 -0.1091 -0.1411
  318W      W  318   0.402   0.198   1.355  0.2556  0.3086 -0.0061
  319W      W  319   3.189   2.639   0.218 -0.1187  0.0504 -0.1835
  320W      W  320   3.274   1.532   2.155  0.0571  0.2353  0.0312
  321W      W  321   1.377   3.559   0.357 -0.1961  0.2560  0.1758
  322W      W  322   3.043   2.039   1.336  0.1412  0.1897  0.1802
  323W      W  323   2.827   3.367   1.983  0.1594  0.1296  0.0904
  324W      W  324   0.183   0.941   2.384 -0.0037 -0.1364 -0.2165
  325W      W  325   2.720   3.212   2.456 -0.0521  0.2636  0.1751
  326W      W  326   3.588   2.737   2.241  0.0251 -0.1916  0.2325
  327W      W  327   2.006   0.104   1.078 -0.1149 -0.1771 -0.1604
  328W      W  328   1.012   1.347   1.930 -0.1952  0.0079 -0.1003
  329W      W  329   0.343   3.350   1.215 -0.0510 -0.0854  0.3012
  330W      W  330   3.427   1.067   2.133  0.0698 -0.1509  0.2969
  331W      W  331   2.905   0.877   2.890 -0.2768 -0.2412  0.2566
  332W      W  332   1.628   3.240   0.015 -0.2556  0.2780 -0.1701
  333W      W  333   3.174   0.039   3.181  0.1334  0.0722 -0.0115
  334W      W  334   1.873   2.971   2.738 -0.1816 -0.1850  0.0233
  335W      W  335   1.142   3.263   3.644  0.0291 -0.0559 -0.1861
  336W      W  336   0.483   1.888   0.449 -0.1142 -0.3558  0.1281
  337W      W  337   1.610   2.051   3.060  0.0215 -0.1939 -0.1329
  338W      W  338   1.614   2.649   1.302  0.1746  0.0525  0.0943
  339W      W  339   1.741   3.349   1.093  0.0801  0.2256  0.2066
  340W      W  340   3.146   2.982   1.870 -0.0502 -0.2624 -0.4710
  341W      W  341   2.128   1.257   1.340  0.1014  0.0292  0.2965
  342W      W  342   3.536   2.690   1.696 -0.3439 -0.1496  0.1452
  343W      W  343   1.376   0.643   1.718  0.2126  0.0568  0.1373
  344W      W  344   3.588   0.327   1.140  0.2234 -0.0494 -0.0891
  345W      W  345   2.864   0.155   0.998 -0.0813 -0.1197 -0.0416
  346W      W  346   1.167   2.089   2.857  0.0242  0.1610  0.0823
  347W      W  347   0.014   1.617   0.481  0.0765  0.1838 -0.3612
  348W      W  348   0.749   2.387   0.167 -0.4128  0.1913  0.1723
  349W      W  349   0.589   2.310   1.901  0.1127 -0.0461 -0.1406
  350W      W  350   1.791   0.081   3.599  0.0197 -0.0909 -0.1046
  351W      W  351   0.589   1.126   3.294 -0.0485  0.1503 -0.0963
  352W      W  352   0.350   1.814   1.829 -0.0535  0.1568  0.0606
  353W      W  353   0.600   0.576   1.119 -0.1853 -0.0604 -0.0457
  354W      W  354   3.223   2.869   0.725  0.0870  0.2616 -0.0860
  355W      W  355   0.881   0.301   2.217  0.0393  0.2294  0.0864
  356W      W  356   0.010   0.474   1.708  0.0702 -0.2349 -0.1726
  357W      W  357   2.618   2.569   1.167  0.2437  0.1440 -0.2234
  358W      W  358   3.029   2.942   1.207 -0.1209 -0.0874  0.0312
  359W      W  359   1.552   0.551   1.161 -0.2414 -0.1734  0.0452
  360W      W  360   3.468   3.190   3.554 -0.0193 -0.0880 -0.2169
  361W      W  361   0.204   2.275   0.202  0.1742 -0.1413 -0.1834
  362W      W  362   2.017   1.393   3.428  0.0376  0.1608  0.2306
  363W      W  363   1.696   0.516   3.456  0.0288  0.0813 -0.0171
  364W      W  364   0.011   0.461   0.271 -0.0196  0.1594 -0.0840
  365W      W  365   1.962   1.312   2.350  0.0724 -0.0681  0.0643
  366W      W  366   2.198   3.134   1.232  0.0493  0.0288 -0.0672
  367W      W  367   2.711   3.528   0.372 -0.0240 -0.0071  0.0737
  368W      W  368   1.613   2.485   2.679  0.0232 -0.0601  0.1984
  369W      W  369   1.562   3.215   3.032  0.2145  0.3646 -0.0129
  370W      W  370   0.191   0.139   2.977 -0.0745  0.0502 -0.0303
  371W      W  371   2.817   2.070   0.905 -0.4159  0.1216  0.3658
  372W      W  372   1.526   2.675   3.196  0.0370  0.1846 -0.2691
  373W      W  373   3.585   2.540   0.639  0.0638 -0.1528 -0.2018
  374W      W  374   3.545   0.527   2.206 -0.2483 -0.1629  0.0216
  375W      W  375   2.317   1.660   0.978 -0.2545 -0.3089 -0.1545
  376W      W  376   0.474   0.236   3.425 -0.1460 -0.0510  0.0857
  377W      W  377   0.758   2.368   3.303  0.1166  0.0982  0.0173
  378W      W  378   3.311   2.337   2.498 -0.0137 -0.0846  0.1128
  379W      W  379   1.125   0.220   1.665  0.2245 -0.0173  0.2720
  380W      W  380   2.654   0.651   1.058 -0.2756  0.1545 -0.1495
  381W      W  381   2.373   2.838   0.827  0.0670  0.1428  0.2432
  382W      W  382   0.576   1.650   2.223  0.0080 -0.1144 -0.2112
  383W      W  383   1.946   1.150   0.830  0.1772  0.2459  0.4158
  384W      W  384   2.034   1.750   3.013  0.0755 -0.0344  0.0373
  385W      W  385   2.220   2.806   1.989  0.2193 -0.3164 -0.0531
  386W      W  386   2.911   2.229   3.332  0.1342  0.0817  0.2058
  387W      W  387   1.357   1.437   0.739  0.0932  0.4300  0.1920
  388W      W  388   3.616   2.066   0.624  0.3817  0.1846  0.0457
  389W      W  389   2.361   3.567   2.762 -0.1725 -0.1901  0.0758
  390W      W  390   3.185   3.564   3.639 -0.0887 -0.1557 -0.0032
  391W      W  391   1.887   3.476   2.689  0.0661  0.2961 -0.2408
  392W      W  392   3.114   1.978   2.194 -0.2671  0.1191 -0.0650
  393W      W  393   0.453   0.109   2.516  0.0038  0.1411 -0.1375
  394W      W  394   0.880   1.916   0.992 -0.1891 -0.0185 -0.0885
  395W      W  395   1.621   2.043   1.408  0.3183 -0.0776 -0.3623
  396W      W  396   2.968   1.070   2.412  0.2004 -0.2188 -0.1092
  397W      W  397   0.970   0.780   2.005  0.0492 -0.1329 -0.0870
  398W      W  398   2.419   0.147   0.727 -0.4061  0.0667  0.1433
  399W      W  399   1.282   3.610   2.837 -0.2616  0.2296  0.1441
  400W      W  400   2.212   2.207   2.251 -0.2010  0.3117  0.2965
   3.65183   3.65183   3.65183
