G2HFOH
 21
    1G2HFO Head    1   1.364   3.874   3.527
    1G2HFO Head    2   1.368   3.862   3.860
    1G2HFO Head    3   1.934   4.092   4.220
    1G2HFO Head    4   1.682   3.921   4.124
    1G2HFO Head    5   1.397   3.973   4.197
    1G2HFO Head    6   1.756   3.851   5.134
    1G2HFO Head    7   1.565   3.922   4.933
    1G2HFO Head    8   2.097   4.128   4.764
    1G2HFO Head    9   1.812   4.011   4.713
    1G2HFO Head   10   1.470   4.009   4.609
    1G2HFO link   11   1.272   3.940   4.427
    1G2HFO link   12   1.042   3.781   4.434
    1G2HFO Tail   13   0.723   3.620   4.256
    1G2HFO Tail   14   0.514   3.388   4.181
    1G2HFO Tail   15   0.410   3.386   3.870
    1G2HFO Tail   16   0.257   3.552   3.816
    1G2HFO Tail   17   0.712   4.040   4.357
    1G2HFO Tail   18   0.879   4.322   4.159
    1G2HFO Tail   19   0.816   4.542   4.200
    1G2HFO Tail   20   0.823   4.795   4.238
    1G2HFO Tail   21   0.789   5.014   4.322
       5.30403   5.30403   5.30403
