G1HFOH
   15
    1G1HFO Head  1  10.311   9.763  10.379
    1G1HFO Head  2  10.427   9.881  10.111
    1G1HFO Head  3  10.940  10.232  10.071
    1G1HFO Head  4  10.674  10.141  10.043
    1G1HFO link  5  10.423  10.089   9.982
    1G1HFO link  6  10.165  10.186   9.986
    1G1HFO Tail  7   9.776  10.238  10.092
    1G1HFO Tail  8   9.629  10.511  10.075
    1G1HFO Tail  9   9.373  10.564   9.952
    1G1HFO Tail 10   9.321  10.663   9.818
    1G1HFO Tail 11   9.946   9.990   9.702
    1G1HFO Tail 12   9.888   9.718   9.762
    1G1HFO Tail 13   9.823   9.537   9.900
    1G1HFO Tail 14   9.690   9.340  10.003
    1G1HFO Tail 15   9.616   9.153  10.127
  20.00000  20.00000  20.00000
