G2HHOH
   19
    1G2HHO Head    1   1.365   0.957   1.356
    1G2HHO Head    2   1.546   1.057   1.092
    1G2HHO Head    3   1.475   1.194   0.381
    1G2HHO Head    4   1.594   1.289   0.695
    1G2HHO Head    5   1.508   1.347   1.021
    1G2HHO Head    6   1.693   1.708   1.903
    1G2HHO Head    7   1.835   1.741   1.617
    1G2HHO Head    8   1.778   2.177   1.501
    1G2HHO Head    9   1.768   1.946   1.274
    1G2HHO Head   10   1.711   1.639   1.238
    1G2HHO link   11   1.570   1.450   1.258
    1G2HHO link   12   1.568   1.378   1.531
    1G2HHO Tail   13   1.340   1.416   1.788
    1G2HHO Tail   14   1.289   1.211   2.026
    1G2HHO Tail   15   1.268   0.941   2.217
    1G2HHO Tail   16   1.084   0.662   2.493
    1G2HHO Tail   17   1.338   1.782   1.758
    1G2HHO Tail   18   1.339   2.089   1.688
    1G2HHO Tail   19   1.429   2.515   1.665
   3.00000   3.00000   3.00000
