LEFLG
  8
    1LEFLG Drug    1   2.249   1.759   2.610  0.4316  0.1428 -0.1489
    1LEFLG Drug    2   2.074   1.881   2.406  0.2105  0.0912  0.0066
    1LEFLG Drug    3   2.163   2.053   2.428  0.0649  0.1628  0.0479
    1LEFLG Drug    4   2.308   2.132   2.601  0.2448  0.3626 -0.0657
    1LEFLG Drug    5   2.568   2.125   2.575 -0.1421  0.0166 -0.2030
    1LEFLG Drug    6   2.503   2.378   2.437  0.1298  0.0852 -0.2104
    1LEFLG Drug    7   2.737   2.197   2.456 -0.1797 -0.3653 -0.5080
    1LEFLG Drug    8   2.832   2.345   2.310 -0.1841  0.2745  0.2079
   3.14935   3.14935   3.14935
