LEFL
  8
    1LEFL  Drug    1   2.911   0.806   2.267 -0.1698  0.0758 -0.1107
    1LEFL  Drug    2   2.684   0.991   2.280 -0.3779 -0.1711 -0.1657
    1LEFL  Drug    3   2.713   1.044   2.096  0.0610  0.3819  0.0418
    1LEFL  Drug    4   2.907   1.104   1.928 -0.1867 -0.0556 -0.0421
    1LEFL  Drug    5   3.101   0.949   1.888  0.0357 -0.0466  0.0709
    1LEFL  Drug    6   3.041   0.660   1.829 -0.2350  0.0571 -0.1794
    1LEFL  Drug    7   3.274   0.817   1.935 -0.0291 -0.2318 -0.1937
    1LEFL  Drug    8   3.374   0.606   1.977  0.1382 -0.0844  0.1796
   3.21476   3.21476   3.21476
