G2FFOH
   23
    1G2FFO Head    1   2.492   1.688   1.440
    1G2FFO Head    2   2.195   1.613   1.427
    1G2FFO Head    3   2.567   1.643   0.972
    1G2FFO Head    4   2.256   1.732   1.061
    1G2FFO Head    5   1.899   1.687   1.180
    1G2FFO Head    6   1.877   1.231   1.753
    1G2FFO Head    7   1.868   1.165   1.403
    1G2FFO Head    8   1.206   1.406   1.076
    1G2FFO Head    9   1.501   1.294   1.228
    1G2FFO Head   10   1.765   1.397   1.281
    1G2FFO link   11   1.687   1.662   1.334
    1G2FFO link   12   1.433   1.646   1.450
    1G2FFO Tail   13   1.199   1.431   1.583
    1G2FFO Tail   14   1.267   1.138   1.653
    1G2FFO Tail   15   1.393   1.115   1.867
    1G2FFO Tail   16   1.551   1.184   2.052
    1G2FFO Tail   17   1.706   1.252   2.246
    1G2FFO Tail   18   1.815   1.272   2.455
    1G2FFO Tail   19   1.025   1.677   1.472
    1G2FFO Tail   20   0.820   1.814   1.473
    1G2FFO Tail   21   0.568   1.820   1.419
    1G2FFO Tail   22   0.323   1.808   1.354
    1G2FFO Tail   23   0.090   1.830   1.319
   3.00000   3.00000   3.00000
